refund: UserID = kowalski
refund: SLURM Job ID = 1663332
refund: Number of nodes          = 1
refund: Number of cores per node = 16
refund: Number of cores          = 16
refund: Amount of time requested = 0:30
refund: Directory = /home/kowalski/FOR_SRIRAM/CISD
 
Processor list
 
g9
 
 argument  1 = /home/kowalski/FOR_SRIRAM/CISD/ozone_cisd_triplet.nw
 


============================== echo of input deck ==============================
start ozone_cisd_triplet

echo

geometry units bohr
symmetry c2v
O   0.0000000000        0.0000000000        0.0000000000
O   0.0000000000       -2.0473224350       -1.2595211660
O   0.0000000000        2.0473224350       -1.2595211660
end

BASIS spherical
O    S
     10662.285000000      0.00079900
      1599.709700000      0.00615300
       364.725260000      0.03115700
       103.651790000      0.11559600
        33.905805000      0.30155200
O    S
        12.287469000      0.44487000
         4.756805000      0.24317200
O    S
         1.004271000      1.00000000
O    S
         0.300686000      1.00000000
O    S
         0.090030000      1.00000000
O    P
        34.856463000      0.01564800
         7.843131000      0.09819700
         2.306249000      0.30776800
         0.723164000      0.49247000
O    P
         0.214882000      1.00000000
O    P
         0.063850000      1.00000000
O    D
         2.306200000      0.20270000
         0.723200000      0.57910000
O    D
         0.214900000      0.78545000
         0.063900000      0.53387000
END

scf
thresh 1.0e-10
tol2e 1.0e-10
triplet
rohf
end

tce
freeze atomic
cisd
tilesize 20
thresh 1.0d-6
end

task tce energy

================================================================================


                                         
                                         
 
 
              Northwest Computational Chemistry Package (NWChem) 6.6
              ------------------------------------------------------
 
 
                    Environmental Molecular Sciences Laboratory
                       Pacific Northwest National Laboratory
                                Richland, WA 99352
 
                              Copyright (c) 1994-2015
                       Pacific Northwest National Laboratory
                            Battelle Memorial Institute
 
             NWChem is an open-source computational chemistry package
                        distributed under the terms of the
                      Educational Community License (ECL) 2.0
             A copy of the license is included with this distribution
                              in the LICENSE.TXT file
 
                                  ACKNOWLEDGMENT
                                  --------------

            This software and its documentation were developed at the
            EMSL at Pacific Northwest National Laboratory, a multiprogram
            national laboratory, operated for the U.S. Department of Energy
            by Battelle under Contract Number DE-AC05-76RL01830. Support
            for this work was provided by the Department of Energy Office
            of Biological and Environmental Research, Office of Basic
            Energy Sciences, and the Office of Advanced Scientific Computing.


           Job information
           ---------------

    hostname        = g9
    program         = /dtemp/scicons/bin/nwchem6.6
    date            = Thu Sep 29 13:21:27 2016

    compiled        = Thu_Jan_28_13:40:59_2016
    source          = /home/scicons/cascade/apps/nwchem-6.6
    nwchem branch   = 6.6
    nwchem revision = 27646
    ga revision     = 10587
    input           = /home/kowalski/FOR_SRIRAM/CISD/ozone_cisd_triplet.nw
    prefix          = ozone_cisd_triplet.
    data base       = ./ozone_cisd_triplet.db
    status          = startup
    nproc           =       16
    time left       =     -1s



           Memory information
           ------------------

    heap     =   13107200 doubles =    100.0 Mbytes
    stack    =   13107197 doubles =    100.0 Mbytes
    global   =   26214400 doubles =    200.0 Mbytes (distinct from heap & stack)
    total    =   52428797 doubles =    400.0 Mbytes
    verify   = yes
    hardfail = no 


           Directory information
           ---------------------
 
  0 permanent = .
  0 scratch   = .
 
 
                     0  ppn                     16
 
 
                                NWChem Input Module
                                -------------------
 
 
 Turning off AUTOSYM since
 SYMMETRY directive was detected!
 

          ------
          auto-z
          ------
 
 
                             Geometry "geometry" -> ""
                             -------------------------
 
 Output coordinates in a.u. (scale by  1.000000000 to convert to a.u.)
 
  No.       Tag          Charge          X              Y              Z
 ---- ---------------- ---------- -------------- -------------- --------------
    1 O                    8.0000     0.00000000     0.00000000     0.83968078
    2 O                    8.0000     0.00000000    -2.04732243    -0.41984039
    3 O                    8.0000     0.00000000     2.04732243    -0.41984039
 
      Atomic Mass 
      ----------- 
 
      O                 15.994910
 

 Effective nuclear repulsion energy (a.u.)      68.8807220355

            Nuclear Dipole moment (a.u.) 
            ----------------------------
        X                 Y               Z
 ---------------- ---------------- ----------------
     0.0000000000     0.0000000000    -0.0000000000
 
      Symmetry information
      --------------------
 
 Group name             C2v       
 Group number             16
 Group order               4
 No. of unique centers     2
 
      Symmetry unique atoms
 
     1    2
 


                                Z-matrix (autoz)
                                -------- 

 Units are Angstrom for bonds and degrees for angles
 
      Type          Name      I     J     K     L     M      Value
      ----------- --------  ----- ----- ----- ----- ----- ----------
    1 Stretch                  1     2                       1.27200
    2 Stretch                  1     3                       1.27200
    3 Bend                     2     1     3               116.80000
 
 
            XYZ format geometry
            -------------------
     3
 geometry
 O                     0.00000000     0.00000000     0.44433996
 O                     0.00000000    -1.08339645    -0.22216998
 O                     0.00000000     1.08339645    -0.22216998
 
 ==============================================================================
                                internuclear distances
 ------------------------------------------------------------------------------
       center one      |      center two      | atomic units |       a.u.
 ------------------------------------------------------------------------------
    2 O                |   1 O                |     2.40373  |     2.40373
    3 O                |   1 O                |     2.40373  |     2.40373
 ------------------------------------------------------------------------------
                         number of included internuclear distances:          2
 ==============================================================================



 ==============================================================================
                                 internuclear angles
 ------------------------------------------------------------------------------
        center 1       |       center 2       |       center 3       |  degrees
 ------------------------------------------------------------------------------
    2 O                |   1 O                |   3 O                |   116.80
 ------------------------------------------------------------------------------
                            number of included internuclear angles:          1
 ==============================================================================



  library name resolved from: environment
  library file name is: <
 /home/scicons/cascade/apps/nwchem-6.6//src/basis/libraries/>
  
                      Basis "ao basis" -> "" (spherical)
                      -----
  O (Oxygen)
  ----------
            Exponent  Coefficients 
       -------------- ---------------------------------------------------------
  1 S  1.06622850E+04  0.000799
  1 S  1.59970970E+03  0.006153
  1 S  3.64725260E+02  0.031157
  1 S  1.03651790E+02  0.115596
  1 S  3.39058050E+01  0.301552
 
  2 S  1.22874690E+01  0.444870
  2 S  4.75680500E+00  0.243172
 
  3 S  1.00427100E+00  1.000000
 
  4 S  3.00686000E-01  1.000000
 
  5 S  9.00300000E-02  1.000000
 
  6 P  3.48564630E+01  0.015648
  6 P  7.84313100E+00  0.098197
  6 P  2.30624900E+00  0.307768
  6 P  7.23164000E-01  0.492470
 
  7 P  2.14882000E-01  1.000000
 
  8 P  6.38500000E-02  1.000000
 
  9 D  2.30620000E+00  0.202700
  9 D  7.23200000E-01  0.579100
 
 10 D  2.14900000E-01  0.785450
 10 D  6.39000000E-02  0.533870
 


 Summary of "ao basis" -> "" (spherical)
 ------------------------------------------------------------------------------
       Tag                 Description            Shells   Functions and Types
 ---------------- ------------------------------  ------  ---------------------
 O                       user specified             10       24   5s3p2d


                                 NWChem SCF Module
                                 -----------------
 
 

  ao basis        = "ao basis"
  functions       =    72
  atoms           =     3
  closed shells   =    11
  open shells     =     2
  charge          =   0.00
  wavefunction    = ROHF
  input vectors   = atomic
  output vectors  = ./ozone_cisd_triplet.movecs
  use symmetry    = T
  symmetry adapt  = T


 Summary of "ao basis" -> "ao basis" (spherical)
 ------------------------------------------------------------------------------
       Tag                 Description            Shells   Functions and Types
 ---------------- ------------------------------  ------  ---------------------
 O                       user specified             10       24   5s3p2d


      Symmetry analysis of basis
      --------------------------
 
        a1         29
        a2          9
        b1         12
        b2         22
 

 Forming initial guess at       2.5s

 
      Superposition of Atomic Density Guess
      -------------------------------------
 
 Sum of atomic energies:        -224.33629831
 
      Non-variational initial energy
      ------------------------------

 Total energy =    -224.636803
 1-e energy   =    -446.716128
 2-e energy   =     153.198603
 HOMO         =      -0.325374
 LUMO         =      -0.166284
 
 
      Symmetry analysis of molecular orbitals - initial
      -------------------------------------------------
 
  Numbering of irreducible representations: 
 
     1 a1          2 a2          3 b1          4 b2      
 
  Orbital symmetries:
 
     1 a1          2 b2          3 a1          4 a1          5 b2      
     6 a1          7 b2          8 a1          9 b1         10 a2      
    11 b2         12 a1         13 b1         14 b2         15 a1      
    16 a1         17 b1         18 a1         19 b2         20 a2      
    21 b1         22 a1         23 b2      
 

 Starting SCF solution at       2.8s



 ----------------------------------------------
         Quadratically convergent ROHF

 Convergence threshold     :          1.000E-10
 Maximum no. of iterations :           30
 Final Fock-matrix accuracy:          1.000E-10
 ----------------------------------------------


              iter       energy          gnorm     gmax       time
             ----- ------------------- --------- --------- --------
                 1     -224.1675666028  1.48D+00  4.82D-01      0.1
                 2     -224.2793861472  3.29D-01  7.85D-02      0.2
                 3     -224.2893632981  2.74D-02  1.93D-02      0.3
                 4     -224.2900697966  1.21D-03  6.64D-04      0.5
                 5     -224.2900700108  6.71D-07  2.16D-07      0.8
                 6     -224.2900700108  2.43D-11  1.58D-11      1.3


       Final ROHF results 
       ------------------ 

         Total SCF energy =   -224.290070010763
      One-electron energy =   -445.235692887508
      Two-electron energy =    152.064900841262
 Nuclear repulsion energy =     68.880722035483

        Time for solution =      1.2s


 
       Symmetry analysis of molecular orbitals - final
       -----------------------------------------------
 
  Numbering of irreducible representations: 
 
     1 a1          2 a2          3 b1          4 b2      
 
  Orbital symmetries:
 
     1 a1          2 b2          3 a1          4 a1          5 b2      
     6 a1          7 a1          8 b1          9 b2         10 a2      
    11 b2         12 a1         13 b1         14 b2         15 a1      
    16 a1         17 b1         18 a1         19 b2         20 a2      
    21 b1         22 b2         23 a1      
 
             Final eigenvalues
             -----------------

              1      
    1  -20.8774
    2  -20.7005
    3  -20.7004
    4   -1.7415
    5   -1.4287
    6   -1.0802
    7   -0.8077
    8   -0.7981
    9   -0.7838
   10   -0.5545
   11   -0.5138
   12   -0.3346
   13   -0.2550
   14    0.1118
   15    0.1119
   16    0.1340
   17    0.1610
   18    0.1959
   19    0.2030
   20    0.2129
   21    0.2178
   22    0.2631
   23    0.2641
 
                       ROHF Final Molecular Orbital Analysis
                       -------------------------------------
 
 Vector    2  Occ=2.000000D+00  E=-2.070047D+01  Symmetry=b2
              MO Center= -3.2D-20, -3.3D-15, -2.2D-01, r^2= 1.2D+00
   Bfn.  Coefficient  Atom+Function         Bfn.  Coefficient  Atom+Function  
  ----- ------------  ---------------      ----- ------------  ---------------
    26      0.469279  2 O  s                 50     -0.469279  3 O  s          
    25      0.296443  2 O  s                 49     -0.296443  3 O  s          
 
 Vector    3  Occ=2.000000D+00  E=-2.070039D+01  Symmetry=a1
              MO Center=  9.1D-19,  3.1D-15, -2.2D-01, r^2= 1.2D+00
   Bfn.  Coefficient  Atom+Function         Bfn.  Coefficient  Atom+Function  
  ----- ------------  ---------------      ----- ------------  ---------------
    26      0.469346  2 O  s                 50      0.469346  3 O  s          
    25      0.296437  2 O  s                 49      0.296437  3 O  s          
 
 Vector    4  Occ=2.000000D+00  E=-1.741547D+00  Symmetry=a1
              MO Center= -1.3D-16, -3.8D-15,  1.4D-01, r^2= 6.9D-01
   Bfn.  Coefficient  Atom+Function         Bfn.  Coefficient  Atom+Function  
  ----- ------------  ---------------      ----- ------------  ---------------
     3      0.415144  1 O  s                  4      0.376611  1 O  s          
    27      0.211458  2 O  s                 51      0.211458  3 O  s          
     2     -0.198115  1 O  s                 28      0.165083  2 O  s          
    52      0.165083  3 O  s          
 
 Vector    5  Occ=2.000000D+00  E=-1.428746D+00  Symmetry=b2
              MO Center= -1.5D-17, -6.6D-15, -3.1D-02, r^2= 1.2D+00
   Bfn.  Coefficient  Atom+Function         Bfn.  Coefficient  Atom+Function  
  ----- ------------  ---------------      ----- ------------  ---------------
    28      0.358582  2 O  s                 52     -0.358582  3 O  s          
    27      0.338979  2 O  s                 51     -0.338979  3 O  s          
     7     -0.312942  1 O  py                26     -0.163781  2 O  s          
    50      0.163781  3 O  s          
 
 Vector    6  Occ=2.000000D+00  E=-1.080168D+00  Symmetry=a1
              MO Center=  1.5D-32, -6.0D-16,  9.7D-04, r^2= 1.6D+00
   Bfn.  Coefficient  Atom+Function         Bfn.  Coefficient  Atom+Function  
  ----- ------------  ---------------      ----- ------------  ---------------
     4      0.441264  1 O  s                 28     -0.370133  2 O  s          
    52     -0.370133  3 O  s                  3      0.350461  1 O  s          
    27     -0.311241  2 O  s                 51     -0.311241  3 O  s          
     8      0.179489  1 O  pz                 2     -0.158542  1 O  s          
     5      0.151641  1 O  s          
 
 Vector    7  Occ=2.000000D+00  E=-8.077181D-01  Symmetry=a1
              MO Center=  8.1D-18,  1.0D-15,  2.0D-01, r^2= 1.4D+00
   Bfn.  Coefficient  Atom+Function         Bfn.  Coefficient  Atom+Function  
  ----- ------------  ---------------      ----- ------------  ---------------
     8      0.526267  1 O  pz                31     -0.313004  2 O  py         
    55      0.313004  3 O  py                11      0.236853  1 O  pz         
    28      0.150870  2 O  s                 52      0.150870  3 O  s          
 
 Vector    8  Occ=2.000000D+00  E=-7.980928D-01  Symmetry=b1
              MO Center= -5.4D-17,  4.9D-15,  8.8D-02, r^2= 1.2D+00
   Bfn.  Coefficient  Atom+Function         Bfn.  Coefficient  Atom+Function  
  ----- ------------  ---------------      ----- ------------  ---------------
     6      0.500784  1 O  px                30      0.365352  2 O  px         
    54      0.365352  3 O  px                 9      0.172051  1 O  px         
 
 Vector    9  Occ=2.000000D+00  E=-7.837970D-01  Symmetry=b2
              MO Center=  7.2D-31,  1.6D-16, -1.2D-01, r^2= 1.7D+00
   Bfn.  Coefficient  Atom+Function         Bfn.  Coefficient  Atom+Function  
  ----- ------------  ---------------      ----- ------------  ---------------
     7      0.491351  1 O  py                28      0.278127  2 O  s          
    52     -0.278127  3 O  s                 31     -0.263143  2 O  py         
    55     -0.263143  3 O  py                32     -0.227447  2 O  pz         
    56      0.227447  3 O  pz                10      0.197389  1 O  py         
    27      0.179427  2 O  s                 51     -0.179427  3 O  s          
 
 Vector   10  Occ=2.000000D+00  E=-5.545299D-01  Symmetry=a2
              MO Center= -4.7D-17, -4.8D-15, -2.0D-01, r^2= 1.7D+00
   Bfn.  Coefficient  Atom+Function         Bfn.  Coefficient  Atom+Function  
  ----- ------------  ---------------      ----- ------------  ---------------
    30      0.541177  2 O  px                54     -0.541177  3 O  px         
    33      0.257767  2 O  px                57     -0.257767  3 O  px         
 
 Vector   11  Occ=2.000000D+00  E=-5.138065D-01  Symmetry=b2
              MO Center=  1.8D-16, -1.5D-13, -1.7D-01, r^2= 1.8D+00
   Bfn.  Coefficient  Atom+Function         Bfn.  Coefficient  Atom+Function  
  ----- ------------  ---------------      ----- ------------  ---------------
    32     -0.396948  2 O  pz                56      0.396948  3 O  pz         
    31      0.383191  2 O  py                55      0.383191  3 O  py         
    34      0.207760  2 O  py                58      0.207760  3 O  py         
    35     -0.196316  2 O  pz                59      0.196316  3 O  pz         
 
 Vector   12  Occ=1.000000D+00  E=-3.346008D-01  Symmetry=a1
              MO Center=  8.1D-17, -3.4D-15, -8.0D-02, r^2= 1.6D+00
   Bfn.  Coefficient  Atom+Function         Bfn.  Coefficient  Atom+Function  
  ----- ------------  ---------------      ----- ------------  ---------------
    32      0.490361  2 O  pz                56      0.490361  3 O  pz         
     8     -0.397515  1 O  pz                35      0.228722  2 O  pz         
    59      0.228722  3 O  pz                 4     -0.169752  1 O  s          
    11     -0.162543  1 O  pz         
 
 Vector   13  Occ=1.000000D+00  E=-2.549739D-01  Symmetry=b1
              MO Center=  1.3D-17,  1.0D-15,  1.2D-01, r^2= 1.2D+00
   Bfn.  Coefficient  Atom+Function         Bfn.  Coefficient  Atom+Function  
  ----- ------------  ---------------      ----- ------------  ---------------
     6      0.678706  1 O  px                30     -0.411946  2 O  px         
    54     -0.411946  3 O  px                 9      0.309370  1 O  px         
    33     -0.235426  2 O  px                57     -0.235426  3 O  px         
 
 Vector   14  Occ=0.000000D+00  E= 1.117819D-01  Symmetry=b2
              MO Center= -1.1D-18,  7.9D-15, -2.6D-01, r^2= 1.2D+01
   Bfn.  Coefficient  Atom+Function         Bfn.  Coefficient  Atom+Function  
  ----- ------------  ---------------      ----- ------------  ---------------
    29      4.412555  2 O  s                 53     -4.412555  3 O  s          
    13      2.315159  1 O  py                37      1.395977  2 O  py         
    61      1.395977  3 O  py                10      1.335717  1 O  py         
    38      0.772404  2 O  pz                62     -0.772404  3 O  pz         
    34      0.641859  2 O  py                58      0.641859  3 O  py         
 
 Vector   15  Occ=0.000000D+00  E= 1.119470D-01  Symmetry=a1
              MO Center= -2.2D-15,  8.1D-15,  1.0D+00, r^2= 9.6D+00
   Bfn.  Coefficient  Atom+Function         Bfn.  Coefficient  Atom+Function  
  ----- ------------  ---------------      ----- ------------  ---------------
     5      7.316184  1 O  s                 29     -3.652468  2 O  s          
    53     -3.652468  3 O  s                 14     -1.847617  1 O  pz         
    37     -1.161016  2 O  py                61      1.161016  3 O  py         
    38     -0.640464  2 O  pz                62     -0.640464  3 O  pz         
    11     -0.568954  1 O  pz                 4      0.553245  1 O  s          
 
 Vector   16  Occ=0.000000D+00  E= 1.340157D-01  Symmetry=a1
              MO Center= -2.9D-17,  5.9D-17, -3.7D-01, r^2= 9.7D+00
   Bfn.  Coefficient  Atom+Function         Bfn.  Coefficient  Atom+Function  
  ----- ------------  ---------------      ----- ------------  ---------------
     5      2.150564  1 O  s                 14      1.755446  1 O  pz         
    38     -1.158132  2 O  pz                62     -1.158132  3 O  pz         
    37     -0.847709  2 O  py                61      0.847709  3 O  py         
     4      0.412346  1 O  s                 45     -0.285723  2 O  d -1       
    69      0.285723  3 O  d -1              11     -0.220866  1 O  pz         
 
 Vector   17  Occ=0.000000D+00  E= 1.610470D-01  Symmetry=b1
              MO Center=  1.1D-16, -7.6D-16, -1.1D-02, r^2= 7.5D+00
   Bfn.  Coefficient  Atom+Function         Bfn.  Coefficient  Atom+Function  
  ----- ------------  ---------------      ----- ------------  ---------------
    36      0.562571  2 O  px                60      0.562571  3 O  px         
    12      0.262027  1 O  px                33     -0.228701  2 O  px         
    57     -0.228701  3 O  px         
 
 Vector   18  Occ=0.000000D+00  E= 1.958889D-01  Symmetry=a1
              MO Center= -1.5D-16,  9.6D-16, -5.9D-01, r^2= 8.7D+00
   Bfn.  Coefficient  Atom+Function         Bfn.  Coefficient  Atom+Function  
  ----- ------------  ---------------      ----- ------------  ---------------
    14      1.183751  1 O  pz                37      0.835506  2 O  py         
    61     -0.835506  3 O  py                 5     -0.797512  1 O  s          
    38     -0.799269  2 O  pz                62     -0.799269  3 O  pz         
    29      0.358511  2 O  s                 53      0.358511  3 O  s          
    35      0.216980  2 O  pz                59      0.216980  3 O  pz         
 
 Vector   19  Occ=0.000000D+00  E= 2.030264D-01  Symmetry=b2
              MO Center=  1.7D-21,  1.7D-14, -8.5D-02, r^2= 9.6D+00
   Bfn.  Coefficient  Atom+Function         Bfn.  Coefficient  Atom+Function  
  ----- ------------  ---------------      ----- ------------  ---------------
    38      1.279569  2 O  pz                62     -1.279569  3 O  pz         
    29     -0.710658  2 O  s                 53      0.710658  3 O  s          
    13     -0.539156  1 O  py                21      0.329245  1 O  d -1       
    35     -0.283157  2 O  pz                59      0.283157  3 O  pz         
    10     -0.263983  1 O  py                28     -0.187123  2 O  s          
 
 Vector   20  Occ=0.000000D+00  E= 2.128842D-01  Symmetry=a2
              MO Center= -1.7D-17,  5.4D-16, -2.1D-01, r^2= 9.6D+00
   Bfn.  Coefficient  Atom+Function         Bfn.  Coefficient  Atom+Function  
  ----- ------------  ---------------      ----- ------------  ---------------
    36      1.401404  2 O  px                60     -1.401404  3 O  px         
    33     -0.224258  2 O  px                57      0.224258  3 O  px         
 
 Vector   21  Occ=0.000000D+00  E= 2.178432D-01  Symmetry=b1
              MO Center=  2.2D-15,  5.7D-16,  2.9D-01, r^2= 9.0D+00
   Bfn.  Coefficient  Atom+Function         Bfn.  Coefficient  Atom+Function  
  ----- ------------  ---------------      ----- ------------  ---------------
    12      3.431684  1 O  px                36     -1.819396  2 O  px         
    60     -1.819396  3 O  px                44     -0.155089  2 O  d -2       
    68      0.155089  3 O  d -2       
 
 Vector   22  Occ=0.000000D+00  E= 2.631120D-01  Symmetry=b2
              MO Center= -5.8D-17,  4.7D-13,  1.0D-01, r^2= 1.1D+01
   Bfn.  Coefficient  Atom+Function         Bfn.  Coefficient  Atom+Function  
  ----- ------------  ---------------      ----- ------------  ---------------
    13      5.873579  1 O  py                29      2.995046  2 O  s          
    53     -2.995046  3 O  s                 37     -1.984819  2 O  py         
    61     -1.984819  3 O  py                38      1.847609  2 O  pz         
    62     -1.847609  3 O  pz                10      0.379241  1 O  py         
    21     -0.324302  1 O  d -1              34      0.291176  2 O  py         
 
 Vector   23  Occ=0.000000D+00  E= 2.641430D-01  Symmetry=a1
              MO Center= -2.7D-16,  2.6D-13,  4.3D-02, r^2= 5.7D+00
   Bfn.  Coefficient  Atom+Function         Bfn.  Coefficient  Atom+Function  
  ----- ------------  ---------------      ----- ------------  ---------------
     5      1.835439  1 O  s                 14      1.446725  1 O  pz         
    29     -1.190068  2 O  s                 53     -1.190068  3 O  s          
    38     -0.938719  2 O  pz                62     -0.938719  3 O  pz         
    24     -0.424358  1 O  d  2               4      0.309597  1 O  s          
    28      0.267195  2 O  s                 52      0.267195  3 O  s          
 
 Vector   24  Occ=0.000000D+00  E= 3.119449D-01  Symmetry=a1
              MO Center=  3.3D-17,  1.1D-14,  1.8D-01, r^2= 4.6D+00
   Bfn.  Coefficient  Atom+Function         Bfn.  Coefficient  Atom+Function  
  ----- ------------  ---------------      ----- ------------  ---------------
     5      8.270806  1 O  s                 29     -3.936150  2 O  s          
    53     -3.936150  3 O  s                 14     -1.369841  1 O  pz         
    37     -1.208698  2 O  py                61      1.208698  3 O  py         
    24     -0.553177  1 O  d  2              35     -0.394911  2 O  pz         
    38     -0.393827  2 O  pz                59     -0.394911  3 O  pz         
 
 Vector   25  Occ=0.000000D+00  E= 3.708611D-01  Symmetry=b2
              MO Center=  1.8D-21,  5.0D-14, -1.5D-01, r^2= 6.4D+00
   Bfn.  Coefficient  Atom+Function         Bfn.  Coefficient  Atom+Function  
  ----- ------------  ---------------      ----- ------------  ---------------
    29      7.755092  2 O  s                 53     -7.755092  3 O  s          
    13      3.660405  1 O  py                10      2.564298  1 O  py         
    34      1.457387  2 O  py                58      1.457387  3 O  py         
    38      1.285822  2 O  pz                62     -1.285822  3 O  pz         
    21     -1.259458  1 O  d -1              37      1.078868  2 O  py         
 
 Vector   26  Occ=0.000000D+00  E= 4.148522D-01  Symmetry=a1
              MO Center= -3.3D-17, -8.4D-16, -1.9D-02, r^2= 6.5D+00
   Bfn.  Coefficient  Atom+Function         Bfn.  Coefficient  Atom+Function  
  ----- ------------  ---------------      ----- ------------  ---------------
     5     10.014030  1 O  s                 29     -4.878705  2 O  s          
    53     -4.878705  3 O  s                 38     -1.187001  2 O  pz         
    62     -1.187001  3 O  pz                37     -0.952346  2 O  py         
    61      0.952346  3 O  py                11     -0.678089  1 O  pz         
    35     -0.541483  2 O  pz                59     -0.541483  3 O  pz         
 
 Vector   27  Occ=0.000000D+00  E= 4.470711D-01  Symmetry=b1
              MO Center= -2.3D-16,  1.8D-13, -2.8D-01, r^2= 5.3D+00
   Bfn.  Coefficient  Atom+Function         Bfn.  Coefficient  Atom+Function  
  ----- ------------  ---------------      ----- ------------  ---------------
    12      1.094182  1 O  px                36     -0.612942  2 O  px         
    60     -0.612942  3 O  px                44      0.528940  2 O  d -2       
    68     -0.528940  3 O  d -2              47      0.377325  2 O  d  1       
    71      0.377325  3 O  d  1               9     -0.373938  1 O  px         
 
 Vector   28  Occ=0.000000D+00  E= 4.801550D-01  Symmetry=b2
              MO Center=  3.1D-18, -8.4D-15, -4.0D-02, r^2= 5.6D+00
   Bfn.  Coefficient  Atom+Function         Bfn.  Coefficient  Atom+Function  
  ----- ------------  ---------------      ----- ------------  ---------------
    29      6.985424  2 O  s                 53     -6.985424  3 O  s          
    13      2.775528  1 O  py                10      2.499913  1 O  py         
    34      1.410839  2 O  py                58      1.410839  3 O  py         
    37      1.112308  2 O  py                61      1.112308  3 O  py         
    35      0.920165  2 O  pz                59     -0.920165  3 O  pz         
 
 Vector   29  Occ=0.000000D+00  E= 4.881018D-01  Symmetry=a1
              MO Center=  6.8D-16, -1.7D-13,  5.4D-01, r^2= 5.6D+00
   Bfn.  Coefficient  Atom+Function         Bfn.  Coefficient  Atom+Function  
  ----- ------------  ---------------      ----- ------------  ---------------
     5     12.795906  1 O  s                 29     -6.211069  2 O  s          
    53     -6.211069  3 O  s                 14     -2.605915  1 O  pz         
    11     -1.678360  1 O  pz                34     -1.400190  2 O  py         
    58      1.400190  3 O  py                28     -1.215544  2 O  s          
    52     -1.215544  3 O  s                 37     -0.900336  2 O  py         
 
 Vector   30  Occ=0.000000D+00  E= 5.423207D-01  Symmetry=a2
              MO Center=  1.3D-16,  1.0D-13, -1.7D-01, r^2= 5.1D+00
   Bfn.  Coefficient  Atom+Function         Bfn.  Coefficient  Atom+Function  
  ----- ------------  ---------------      ----- ------------  ---------------
    47      0.826027  2 O  d  1              71     -0.826027  3 O  d  1       
    20      0.151474  1 O  d -2       
 

 center of mass
 --------------
 x =   0.00000000 y =   0.00000000 z =  -0.00000000

 moments of inertia (a.u.)
 ------------------
         151.002411350144           0.000000000000           0.000000000000
           0.000000000000          16.916148225582           0.000000000000
           0.000000000000           0.000000000000         134.086263124562
 
  Mulliken analysis of the total density
  --------------------------------------

    Atom       Charge   Shell Charges
 -----------   ------   -------------------------------------------------------
    1 O    8     7.68   0.76  1.22  0.92  0.95 -0.04  3.18  0.63 -0.03  0.09 -0.01
    2 O    8     8.16   0.76  1.22  0.93  1.07  0.12  3.16  0.91 -0.00  0.04 -0.05
    3 O    8     8.16   0.76  1.22  0.93  1.07  0.12  3.16  0.91 -0.00  0.04 -0.05
 
 Mulliken analysis of the open-shell density
 -------------------------------------------

    Atom       Charge   Shell Charges
 -----------   ------   -------------------------------------------------------
    1 O    8     0.77   0.00 -0.00  0.01  0.02  0.02  0.63  0.07 -0.00  0.01  0.00
    2 O    8     0.62  -0.00  0.00 -0.00  0.00 -0.00  0.48  0.14  0.01  0.00 -0.01
    3 O    8     0.62  -0.00  0.00 -0.00  0.00 -0.00  0.48  0.14  0.01  0.00 -0.01
 
       Multipole analysis of the density wrt the origin
       ------------------------------------------------
 
     L   x y z        total         open         nuclear
     -   - - -        -----         ----         -------
     0   0 0 0     -0.000000     -2.000000     24.000000
 
     1   1 0 0      0.000000     -0.000000      0.000000
     1   0 1 0      0.000000      0.000000      0.000000
     1   0 0 1      0.246589     -0.083499     -0.000000
 
     2   2 0 0    -11.606433     -1.378358      0.000000
     2   1 1 0      0.000000     -0.000000      0.000000
     2   1 0 1     -0.000000      0.000000      0.000000
     2   0 2 0    -13.082630     -6.112814     67.064466
     2   0 1 1     -0.000000      0.000000      0.000000
     2   0 0 2    -10.932599     -2.679855      8.460766
 
                   NWChem Extensible Many-Electron Theory Module
                   ---------------------------------------------
 
              ======================================================
                   This portion of the program was automatically
                  generated by a Tensor Contraction Engine (TCE).
                  The development of this portion of the program
                 and TCE was supported by US Department of Energy,
                Office of Science, Office of Basic Energy Science.
                      TCE is a product of Battelle and PNNL.
              Please cite: S.Hirata, J.Phys.Chem.A 107, 9887 (2003).
              ======================================================
 
            General Information
            -------------------
      Number of processors :    16
         Wavefunction type : Restricted open-shell Hartree-Fock
          No. of electrons :    24
           Alpha electrons :    13
            Beta electrons :    11
           No. of orbitals :   144
            Alpha orbitals :    72
             Beta orbitals :    72
        Alpha frozen cores :     3
         Beta frozen cores :     3
     Alpha frozen virtuals :     0
      Beta frozen virtuals :     0
         Spin multiplicity : triplet 
    Number of AO functions :    72
       Number of AO shells :    30
        Use of symmetry is : on 
      Symmetry adaption is : on 
         Schwarz screening : 0.10D-09
 
          Correlation Information
          -----------------------
          Calculation type : Configuration interaction singles & doubles                 
   Perturbative correction : none                                                        
            Max iterations :      100
        Residual threshold : 0.10D-05
     T(0) DIIS level shift : 0.00D+00
     L(0) DIIS level shift : 0.00D+00
     T(1) DIIS level shift : 0.00D+00
     L(1) DIIS level shift : 0.00D+00
     T(R) DIIS level shift : 0.00D+00
     T(I) DIIS level shift : 0.00D+00
   CC-T/L Amplitude update :  5-th order DIIS
                I/O scheme : Global Array Library
        L-threshold :  0.10D-05
        EOM-threshold :  0.10D-05
 no EOMCCSD initial starts read in
 TCE RESTART OPTIONS
 READ_INT:   F
 WRITE_INT:  F
 READ_TA:    F
 WRITE_TA:   F
 READ_XA:    F
 WRITE_XA:   F
 READ_IN3:   F
 WRITE_IN3:  F
 SLICE:      F
 D4D5:       F
 
            Memory Information
            ------------------
          Available GA space size is     419420032 doubles
          Available MA space size is      26208788 doubles
 
 Maximum block size supplied by input
 Maximum block size        20 doubles

 tile_dim =     18

 Block   Spin    Irrep     Size     Offset   Alpha
 -------------------------------------------------
   1    alpha     a1     4 doubles       0       1
   2    alpha     a2     1 doubles       4       2
   3    alpha     b1     2 doubles       5       3
   4    alpha     b2     3 doubles       7       4
   5    beta      a1     3 doubles      10       5
   6    beta      a2     1 doubles      13       6
   7    beta      b1     1 doubles      14       7
   8    beta      b2     3 doubles      15       8
   9    alpha     a1    11 doubles      18       9
  10    alpha     a1    12 doubles      29      10
  11    alpha     a2     8 doubles      41      11
  12    alpha     b1    10 doubles      49      12
  13    alpha     b2    18 doubles      59      13
  14    beta      a1    12 doubles      77      14
  15    beta      a1    12 doubles      89      15
  16    beta      a2     8 doubles     101      16
  17    beta      b1    11 doubles     109      17
  18    beta      b2    18 doubles     120      18

 Global array virtual files algorithm will be used

 Parallel file system coherency ......... OK
 
 Fock matrix recomputed
 1-e file size   =             2790
 1-e file name   = ./ozone_cisd_triplet
 Cpu & wall time / sec            0.0            0.1
 
 tce_ao2e: fast2e=1
 half-transformed integrals in memory
 
 2-e (intermediate) file size =        53509248
 2-e (intermediate) file name = ./ozone_cisd_triplet.v2i
 Cpu & wall time / sec            0.9            1.1
 
 tce_mo2e: fast2e=1
 2-e integrals stored in memory
 
 2-e file size   =         10138096
 2-e file name   = ./ozone_cisd_triplet
 Cpu & wall time / sec            0.4            0.5
 T1-number-of-tasks                    10
 
 t1 file size   =              319
 t1 file name   = ./ozone_cisd_triplet
 t1 file handle =       -998
 T2-number-of-boxes                   184
 
 t2 file size   =           144124
 t2 file name   = ./ozone_cisd_triplet
 t2 file handle =       -995

 CISD iterations
 --------------------------------------------------------
 Iter          Residuum       Correlation     Cpu    Wall
 --------------------------------------------------------
    1   0.6330486077498  -0.6646415581346     0.1     0.2
    2   0.6604831868208  -0.3779239668050     0.0     0.0
    3   0.8654623833165  -0.6910811620340     0.0     0.0
    4   1.1975216884105  -0.3139162973692     0.0     0.0
    5   1.7762310961639  -0.7920417941629     0.0     0.0
 MICROCYCLE DIIS UPDATE:                     5                     5
    6   0.0772452757441  -0.5213851848106     0.0     0.0
    7   0.1320430502962  -0.5534510725865     0.0     0.0
    8   0.2015496957636  -0.5047811432214     0.0     0.0
    9   0.3182531694408  -0.5775398047513     0.0     0.0
   10   0.5005858406579  -0.4665396199462     0.0     0.0
 MICROCYCLE DIIS UPDATE:                    10                     5
   11   0.0053261374897  -0.5334768662600     0.0     0.0
   12   0.0100384339983  -0.5354900385891     0.0     0.0
   13   0.0155941704229  -0.5321994461983     0.0     0.0
   14   0.0255208125786  -0.5373371592377     0.0     0.0
   15   0.0420565741122  -0.5293575759546     0.0     0.0
 MICROCYCLE DIIS UPDATE:                    15                     5
   16   0.0001570219905  -0.5342109619465     0.0     0.0
   17   0.0000942209473  -0.5342249073933     0.0     0.0
   18   0.0001426527373  -0.5342143292286     0.0     0.0
   19   0.0002522364781  -0.5342234808486     0.0     0.0
   20   0.0004688793321  -0.5342162987295     0.0     0.0
 MICROCYCLE DIIS UPDATE:                    20                     5
   21   0.0000039307907  -0.5342192518807     0.0     0.0
   22   0.0000031878661  -0.5342196686413     0.0     0.0
   23   0.0000042950080  -0.5342190324273     0.0     0.0
   24   0.0000067913049  -0.5342201281782     0.0     0.0
   25   0.0000108290373  -0.5342183079763     0.0     0.0
 MICROCYCLE DIIS UPDATE:                    25                     5
   26   0.0000001424607  -0.5342194477196     0.0     0.0
 --------------------------------------------------------
 Iterations converged
 CISD correlation energy / hartree =        -0.534219447719573
 CISD total energy / hartree       =      -224.824289458482951

 Singles contributions

 Doubles contributions

 Task  times  cpu:        3.8s     wall:        5.8s
 
 
                                NWChem Input Module
                                -------------------
 
 
 Summary of allocated global arrays
-----------------------------------
  No active global arrays



                         GA Statistics for process    0
                         ------------------------------

       create   destroy   get      put      acc     scatter   gather  read&inc
calls: 2512     2512     9.29e+04 4251     1.08e+04    0        0     6.69e+04 
number of processes/call 1.16e+00 1.49e+00 1.37e+00 0.00e+00 0.00e+00
bytes total:             5.20e+08 4.03e+07 5.06e+07 0.00e+00 0.00e+00 5.35e+05
bytes remote:            4.87e+08 3.46e+07 4.64e+07 0.00e+00 0.00e+00 0.00e+00
Max memory consumed for GA by this process: 31834296 bytes
 
MA_summarize_allocated_blocks: starting scan ...
MA_summarize_allocated_blocks: scan completed: 0 heap blocks, 0 stack blocks
MA usage statistics:

	allocation statistics:
					      heap	     stack
					      ----	     -----
	current number of blocks	         0	         0
	maximum number of blocks	        17	        28
	current total bytes		         0	         0
	maximum total bytes		     80104	  22510920
	maximum total K-bytes		        81	     22511
	maximum total M-bytes		         1	        23
 
 
                                     CITATION
                                     --------
                Please cite the following reference when publishing
                           results obtained with NWChem:
 
                 M. Valiev, E.J. Bylaska, N. Govind, K. Kowalski,
              T.P. Straatsma, H.J.J. van Dam, D. Wang, J. Nieplocha,
                        E. Apra, T.L. Windus, W.A. de Jong
                 "NWChem: a comprehensive and scalable open-source
                  solution for large scale molecular simulations"
                      Comput. Phys. Commun. 181, 1477 (2010)
                           doi:10.1016/j.cpc.2010.04.018
 
                                      AUTHORS
                                      -------
          E. Apra, E. J. Bylaska, W. A. de Jong, N. Govind, K. Kowalski,
       T. P. Straatsma, M. Valiev, H. J. J. van Dam, D. Wang, T. L. Windus,
        J. Hammond, J. Autschbach, K. Bhaskaran-Nair, J. Brabec, K. Lopata,
       S. A. Fischer, S. Krishnamoorthy, W. Ma, M. Klemm, O. Villa, Y. Chen,
    V. Anisimov, F. Aquino, S. Hirata, M. T. Hackler, T. Risthaus, M. Malagoli,
       A. Marenich, A. Otero-de-la-Roza, J. Mullin, P. Nichols, R. Peverati,
     J. Pittner, Y. Zhao, P.-D. Fan, A. Fonari, M. Williamson, R. J. Harrison,
       J. R. Rehr, M. Dupuis, D. Silverstein, D. M. A. Smith, J. Nieplocha,
        V. Tipparaju, M. Krishnan, B. E. Van Kuiken, A. Vazquez-Mayagoitia,
        L. Jensen, M. Swart, Q. Wu, T. Van Voorhis, A. A. Auer, M. Nooijen,
      L. D. Crosby, E. Brown, G. Cisneros, G. I. Fann, H. Fruchtl, J. Garza,
        K. Hirao, R. A. Kendall, J. A. Nichols, K. Tsemekhman, K. Wolinski,
     J. Anchell, D. E. Bernholdt, P. Borowski, T. Clark, D. Clerc, H. Dachsel,
   M. J. O. Deegan, K. Dyall, D. Elwood, E. Glendening, M. Gutowski, A. C. Hess,
         J. Jaffe, B. G. Johnson, J. Ju, R. Kobayashi, R. Kutteh, Z. Lin,
   R. Littlefield, X. Long, B. Meng, T. Nakajima, S. Niu, L. Pollack, M. Rosing,
   K. Glaesemann, G. Sandrone, M. Stave, H. Taylor, G. Thomas, J. H. van Lenthe,
                               A. T. Wong, Z. Zhang.

 Total times  cpu:        3.8s     wall:        7.8s
