refund: UserID = kowalski
refund: SLURM Job ID = 1749144
refund: Number of nodes          = 3
refund: Number of cores per node = 16
refund: Number of cores          = 48
refund: Amount of time requested = 1:00
refund: Directory = /home/kowalski/SC2017/CROSS_CHECK
 
Processor list
 
g[3-5]
 
 argument  1 = /home/kowalski/SC2017/CROSS_CHECK/naphthalene_ccpvdz_ip.nw
 


============================== echo of input deck ==============================
echo

start naphta_ip_ccsd_ccpvdz

permanent_dir /dtemp/kowalski

memory stack 1800 mb heap 180 mb global 2200 mb noverify

geometry units angstrom
C     0.0000  1.2406  1.3971
C     0.0000  2.4238  0.7058
C     0.0000  2.4238  -0.7058
C     0.0000  1.2406  -1.3971
C     0.0000  -1.2406 -1.3971
C     0.0000  -2.4238 -0.7058
C     0.0000  -2.4238 0.7058
C     0.0000  -1.2406 1.3971
C     0.0000  0.0000  0.7140
C     0.0000  0.0000  -0.7140
H     0.0000  1.2389  2.4800
H     0.0000  3.3648  1.2399
H     0.0000  3.3648  -1.2399
H     0.0000  1.2389  -2.4800
H     0.0000  -1.2389 -2.4800
H     0.0000  -3.3648 -1.2399
H     0.0000  -3.3648 1.2399
H     0.0000  -1.2389 2.4800
end


BASIS spherical
 * library cc-pVDZ
END

scf
thresh 1.0e-8
tol2e 1.0e-8
singlet
rhf
maxiter 200
end

tce
freeze atomic
ipccsd
tilesize 40
thresh 1.0d-6
2eorb
2emet 13
attilesize 45
nroots 1
end

set tce:maxeorb 0.57

task tce energy

================================================================================


                                         
                                         
 
 
              Northwest Computational Chemistry Package (NWChem) 6.6
              ------------------------------------------------------
 
 
                    Environmental Molecular Sciences Laboratory
                       Pacific Northwest National Laboratory
                                Richland, WA 99352
 
                              Copyright (c) 1994-2015
                       Pacific Northwest National Laboratory
                            Battelle Memorial Institute
 
             NWChem is an open-source computational chemistry package
                        distributed under the terms of the
                      Educational Community License (ECL) 2.0
             A copy of the license is included with this distribution
                              in the LICENSE.TXT file
 
                                  ACKNOWLEDGMENT
                                  --------------

            This software and its documentation were developed at the
            EMSL at Pacific Northwest National Laboratory, a multiprogram
            national laboratory, operated for the U.S. Department of Energy
            by Battelle under Contract Number DE-AC05-76RL01830. Support
            for this work was provided by the Department of Energy Office
            of Biological and Environmental Research, Office of Basic
            Energy Sciences, and the Office of Advanced Scientific Computing.


           Job information
           ---------------

    hostname        = g3
    program         = /dtemp/kowalski/nwchem_sliced_intel/bin/LINUX64/nwchem
    date            = Wed Mar  1 16:26:13 2017

    compiled        = Thu_May_12_13:38:53_2016
    source          = /dtemp/kowalski/nwchem_sliced_intel
    nwchem branch   = Development
    nwchem revision = 28222
    ga revision     = 10645
    input           = /home/kowalski/SC2017/CROSS_CHECK/naphthalene_ccpvdz_ip.nw
    prefix          = naphta_ip_ccsd_ccpvdz.
    data base       = /dtemp/kowalski/naphta_ip_ccsd_ccpvdz.db
    status          = startup
    nproc           =       48
    time left       =     -1s



           Memory information
           ------------------

    heap     =   23592954 doubles =    180.0 Mbytes
    stack    =  235929599 doubles =   1800.0 Mbytes
    global   =  288358400 doubles =   2200.0 Mbytes (distinct from heap & stack)
    total    =  547880953 doubles =   4180.0 Mbytes
    verify   = no 
    hardfail = no 


           Directory information
           ---------------------
 
  0 permanent = /dtemp/kowalski
  0 scratch   = .
 
 
                     0  ppn                     16
 
 
                                NWChem Input Module
                                -------------------
 
 

 Scaling coordinates for geometry "geometry" by  1.889725989
 (inverse scale =  0.529177249)

 D2H symmetry detected

          ------
          auto-z
          ------
 
 
                             Geometry "geometry" -> ""
                             -------------------------
 
 Output coordinates in angstroms (scale by  1.889725989 to convert to a.u.)
 
  No.       Tag          Charge          X              Y              Z
 ---- ---------------- ---------- -------------- -------------- --------------
    1 C                    6.0000     1.39710000    -1.24060000     0.00000000
    2 C                    6.0000     0.70580000    -2.42380000     0.00000000
    3 C                    6.0000    -0.70580000    -2.42380000     0.00000000
    4 C                    6.0000    -1.39710000    -1.24060000     0.00000000
    5 C                    6.0000    -1.39710000     1.24060000     0.00000000
    6 C                    6.0000    -0.70580000     2.42380000     0.00000000
    7 C                    6.0000     0.70580000     2.42380000     0.00000000
    8 C                    6.0000     1.39710000     1.24060000     0.00000000
    9 C                    6.0000     0.71400000     0.00000000     0.00000000
   10 C                    6.0000    -0.71400000     0.00000000     0.00000000
   11 H                    1.0000     2.48000000    -1.23890000     0.00000000
   12 H                    1.0000     1.23990000    -3.36480000     0.00000000
   13 H                    1.0000    -1.23990000    -3.36480000     0.00000000
   14 H                    1.0000    -2.48000000    -1.23890000     0.00000000
   15 H                    1.0000    -2.48000000     1.23890000     0.00000000
   16 H                    1.0000    -1.23990000     3.36480000     0.00000000
   17 H                    1.0000     1.23990000     3.36480000     0.00000000
   18 H                    1.0000     2.48000000     1.23890000     0.00000000
 
      Atomic Mass 
      ----------- 
 
      C                 12.000000
      H                  1.007825
 

 Effective nuclear repulsion energy (a.u.)     459.0064274819

            Nuclear Dipole moment (a.u.) 
            ----------------------------
        X                 Y               Z
 ---------------- ---------------- ----------------
    -0.0000000000    -0.0000000000     0.0000000000
 
      Symmetry information
      --------------------
 
 Group name             D2h       
 Group number             26
 Group order               8
 No. of unique centers     5
 
      Symmetry unique atoms
 
     1    2    9   11   12
 


                                Z-matrix (autoz)
                                -------- 

 Units are Angstrom for bonds and degrees for angles
 
      Type          Name      I     J     K     L     M      Value
      ----------- --------  ----- ----- ----- ----- ----- ----------
    1 Stretch                  1     2                       1.37035
    2 Stretch                  1     9                       1.41623
    3 Stretch                  1    11                       1.08290
    4 Stretch                  2     3                       1.41160
    5 Stretch                  2    12                       1.08201
    6 Stretch                  3     4                       1.37035
    7 Stretch                  3    13                       1.08201
    8 Stretch                  4    10                       1.41623
    9 Stretch                  4    14                       1.08290
   10 Stretch                  5     6                       1.37035
   11 Stretch                  5    10                       1.41623
   12 Stretch                  5    15                       1.08290
   13 Stretch                  6     7                       1.41160
   14 Stretch                  6    16                       1.08201
   15 Stretch                  7     8                       1.37035
   16 Stretch                  7    17                       1.08201
   17 Stretch                  8     9                       1.41623
   18 Stretch                  8    18                       1.08290
   19 Stretch                  9    10                       1.42800
   20 Bend                     1     2     3               120.29616
   21 Bend                     1     2    12               120.12513
   22 Bend                     1     9     8               122.32382
   23 Bend                     1     9    10               118.83809
   24 Bend                     2     1     9               120.86575
   25 Bend                     2     1    11               120.38611
   26 Bend                     2     3     4               120.29616
   27 Bend                     2     3    13               119.57871
   28 Bend                     3     2    12               119.57871
   29 Bend                     3     4    10               120.86575
   30 Bend                     3     4    14               120.38611
   31 Bend                     4     3    13               120.12513
   32 Bend                     4    10     5               122.32382
   33 Bend                     4    10     9               118.83809
   34 Bend                     5     6     7               120.29616
   35 Bend                     5     6    16               120.12513
   36 Bend                     5    10     9               118.83809
   37 Bend                     6     5    10               120.86575
   38 Bend                     6     5    15               120.38611
   39 Bend                     6     7     8               120.29616
   40 Bend                     6     7    17               119.57871
   41 Bend                     7     6    16               119.57871
   42 Bend                     7     8     9               120.86575
   43 Bend                     7     8    18               120.38611
   44 Bend                     8     7    17               120.12513
   45 Bend                     8     9    10               118.83809
   46 Bend                     9     1    11               118.74814
   47 Bend                     9     8    18               118.74814
   48 Bend                    10     4    14               118.74814
   49 Bend                    10     5    15               118.74814
   50 Torsion                  1     2     3     4           0.00000
   51 Torsion                  1     2     3    13         180.00000
   52 Torsion                  1     9     8     7         180.00000
   53 Torsion                  1     9     8    18           0.00000
   54 Torsion                  1     9    10     4           0.00000
   55 Torsion                  1     9    10     5         180.00000
   56 Torsion                  2     1     9     8         180.00000
   57 Torsion                  2     1     9    10           0.00000
   58 Torsion                  2     3     4    10           0.00000
   59 Torsion                  2     3     4    14         180.00000
   60 Torsion                  3     2     1     9           0.00000
   61 Torsion                  3     2     1    11         180.00000
   62 Torsion                  3     4    10     5         180.00000
   63 Torsion                  3     4    10     9           0.00000
   64 Torsion                  4     3     2    12         180.00000
   65 Torsion                  4    10     5     6         180.00000
   66 Torsion                  4    10     5    15           0.00000
   67 Torsion                  4    10     9     8         180.00000
   68 Torsion                  5     6     7     8           0.00000
   69 Torsion                  5     6     7    17         180.00000
   70 Torsion                  5    10     4    14           0.00000
   71 Torsion                  5    10     9     8           0.00000
   72 Torsion                  6     5    10     9           0.00000
   73 Torsion                  6     7     8     9           0.00000
   74 Torsion                  6     7     8    18         180.00000
   75 Torsion                  7     6     5    10           0.00000
   76 Torsion                  7     6     5    15         180.00000
   77 Torsion                  7     8     9    10           0.00000
   78 Torsion                  8     7     6    16         180.00000
   79 Torsion                  8     9     1    11           0.00000
   80 Torsion                  9     1     2    12         180.00000
   81 Torsion                  9     8     7    17         180.00000
   82 Torsion                  9    10     4    14         180.00000
   83 Torsion                  9    10     5    15         180.00000
   84 Torsion                 10     4     3    13         180.00000
   85 Torsion                 10     5     6    16         180.00000
   86 Torsion                 10     9     1    11         180.00000
   87 Torsion                 10     9     8    18         180.00000
   88 Torsion                 11     1     2    12           0.00000
   89 Torsion                 12     2     3    13           0.00000
   90 Torsion                 13     3     4    14           0.00000
   91 Torsion                 15     5     6    16           0.00000
   92 Torsion                 16     6     7    17           0.00000
   93 Torsion                 17     7     8    18           0.00000
 
 
            XYZ format geometry
            -------------------
    18
 geometry
 C                     1.39710000    -1.24060000     0.00000000
 C                     0.70580000    -2.42380000     0.00000000
 C                    -0.70580000    -2.42380000     0.00000000
 C                    -1.39710000    -1.24060000     0.00000000
 C                    -1.39710000     1.24060000     0.00000000
 C                    -0.70580000     2.42380000     0.00000000
 C                     0.70580000     2.42380000     0.00000000
 C                     1.39710000     1.24060000     0.00000000
 C                     0.71400000     0.00000000     0.00000000
 C                    -0.71400000     0.00000000     0.00000000
 H                     2.48000000    -1.23890000     0.00000000
 H                     1.23990000    -3.36480000     0.00000000
 H                    -1.23990000    -3.36480000     0.00000000
 H                    -2.48000000    -1.23890000     0.00000000
 H                    -2.48000000     1.23890000     0.00000000
 H                    -1.23990000     3.36480000     0.00000000
 H                     1.23990000     3.36480000     0.00000000
 H                     2.48000000     1.23890000     0.00000000
 
 ==============================================================================
                                internuclear distances
 ------------------------------------------------------------------------------
       center one      |      center two      | atomic units |  angstroms
 ------------------------------------------------------------------------------
    2 C                |   1 C                |     2.58959  |     1.37035
    3 C                |   2 C                |     2.66754  |     1.41160
    4 C                |   3 C                |     2.58959  |     1.37035
    6 C                |   5 C                |     2.58959  |     1.37035
    7 C                |   6 C                |     2.66754  |     1.41160
    8 C                |   7 C                |     2.58959  |     1.37035
    9 C                |   1 C                |     2.67629  |     1.41623
    9 C                |   8 C                |     2.67629  |     1.41623
   10 C                |   4 C                |     2.67629  |     1.41623
   10 C                |   5 C                |     2.67629  |     1.41623
   10 C                |   9 C                |     2.69853  |     1.42800
   11 H                |   1 C                |     2.04639  |     1.08290
   12 H                |   2 C                |     2.04470  |     1.08201
   13 H                |   3 C                |     2.04470  |     1.08201
   14 H                |   4 C                |     2.04639  |     1.08290
   15 H                |   5 C                |     2.04639  |     1.08290
   16 H                |   6 C                |     2.04470  |     1.08201
   17 H                |   7 C                |     2.04470  |     1.08201
   18 H                |   8 C                |     2.04639  |     1.08290
 ------------------------------------------------------------------------------
                         number of included internuclear distances:         19
 ==============================================================================



 ==============================================================================
                                 internuclear angles
 ------------------------------------------------------------------------------
        center 1       |       center 2       |       center 3       |  degrees
 ------------------------------------------------------------------------------
    2 C                |   1 C                |   9 C                |   120.87
    2 C                |   1 C                |  11 H                |   120.39
    9 C                |   1 C                |  11 H                |   118.75
    1 C                |   2 C                |   3 C                |   120.30
    1 C                |   2 C                |  12 H                |   120.13
    3 C                |   2 C                |  12 H                |   119.58
    2 C                |   3 C                |   4 C                |   120.30
    2 C                |   3 C                |  13 H                |   119.58
    4 C                |   3 C                |  13 H                |   120.13
    3 C                |   4 C                |  10 C                |   120.87
    3 C                |   4 C                |  14 H                |   120.39
   10 C                |   4 C                |  14 H                |   118.75
    6 C                |   5 C                |  10 C                |   120.87
    6 C                |   5 C                |  15 H                |   120.39
   10 C                |   5 C                |  15 H                |   118.75
    5 C                |   6 C                |   7 C                |   120.30
    5 C                |   6 C                |  16 H                |   120.13
    7 C                |   6 C                |  16 H                |   119.58
    6 C                |   7 C                |   8 C                |   120.30
    6 C                |   7 C                |  17 H                |   119.58
    8 C                |   7 C                |  17 H                |   120.13
    7 C                |   8 C                |   9 C                |   120.87
    7 C                |   8 C                |  18 H                |   120.39
    9 C                |   8 C                |  18 H                |   118.75
    1 C                |   9 C                |   8 C                |   122.32
    1 C                |   9 C                |  10 C                |   118.84
    8 C                |   9 C                |  10 C                |   118.84
    4 C                |  10 C                |   5 C                |   122.32
    4 C                |  10 C                |   9 C                |   118.84
    5 C                |  10 C                |   9 C                |   118.84
 ------------------------------------------------------------------------------
                            number of included internuclear angles:         30
 ==============================================================================



  library name resolved from: environment
  library file name is: <
 /home/scicons/cascade/apps/nwchem-6.6//src/basis/libraries/>
  


 Summary of "ao basis" -> "" (spherical)
 ------------------------------------------------------------------------------
       Tag                 Description            Shells   Functions and Types
 ---------------- ------------------------------  ------  ---------------------
 *                          cc-pVDZ                   on all atoms 


                      Basis "ao basis" -> "ao basis" (spherical)
                      -----
  C (Carbon)
  ----------
            Exponent  Coefficients 
       -------------- ---------------------------------------------------------
  1 S  6.66500000E+03  0.000692
  1 S  1.00000000E+03  0.005329
  1 S  2.28000000E+02  0.027077
  1 S  6.47100000E+01  0.101718
  1 S  2.10600000E+01  0.274740
  1 S  7.49500000E+00  0.448564
  1 S  2.79700000E+00  0.285074
  1 S  5.21500000E-01  0.015204
 
  2 S  6.66500000E+03 -0.000146
  2 S  1.00000000E+03 -0.001154
  2 S  2.28000000E+02 -0.005725
  2 S  6.47100000E+01 -0.023312
  2 S  2.10600000E+01 -0.063955
  2 S  7.49500000E+00 -0.149981
  2 S  2.79700000E+00 -0.127262
  2 S  5.21500000E-01  0.544529
 
  3 S  1.59600000E-01  1.000000
 
  4 P  9.43900000E+00  0.038109
  4 P  2.00200000E+00  0.209480
  4 P  5.45600000E-01  0.508557
 
  5 P  1.51700000E-01  1.000000
 
  6 D  5.50000000E-01  1.000000
 
  H (Hydrogen)
  ------------
            Exponent  Coefficients 
       -------------- ---------------------------------------------------------
  1 S  1.30100000E+01  0.019685
  1 S  1.96200000E+00  0.137977
  1 S  4.44600000E-01  0.478148
 
  2 S  1.22000000E-01  1.000000
 
  3 P  7.27000000E-01  1.000000
 


 Summary of "ao basis" -> "ao basis" (spherical)
 ------------------------------------------------------------------------------
       Tag                 Description            Shells   Functions and Types
 ---------------- ------------------------------  ------  ---------------------
 C                          cc-pVDZ                  6       14   3s2p1d
 H                          cc-pVDZ                  3        5   2s1p


                                 NWChem SCF Module
                                 -----------------
 
 

  ao basis        = "ao basis"
  functions       =   180
  atoms           =    18
  closed shells   =    34
  open shells     =     0
  charge          =   0.00
  wavefunction    = RHF 
  input vectors   = atomic
  output vectors  = /dtemp/kowalski/naphta_ip_ccsd_ccpvdz.movecs
  use symmetry    = T
  symmetry adapt  = T


 Summary of "ao basis" -> "ao basis" (spherical)
 ------------------------------------------------------------------------------
       Tag                 Description            Shells   Functions and Types
 ---------------- ------------------------------  ------  ---------------------
 C                          cc-pVDZ                  6       14   3s2p1d
 H                          cc-pVDZ                  3        5   2s1p


      Symmetry analysis of basis
      --------------------------
 
        ag         35
        au         11
        b1g        31
        b1u        13
        b2g        13
        b2u        31
        b3g        11
        b3u        35
 

 Forming initial guess at      17.9s

 
      Superposition of Atomic Density Guess
      -------------------------------------
 
 Sum of atomic energies:        -380.65569309
 
      Non-variational initial energy
      ------------------------------

 Total energy =    -388.145112
 1-e energy   =   -1420.220742
 2-e energy   =     573.069203
 HOMO         =      -0.252367
 LUMO         =      -0.053414
 
 
      Symmetry analysis of molecular orbitals - initial
      -------------------------------------------------
 
  Numbering of irreducible representations: 
 
     1 ag          2 au          3 b1g         4 b1u         5 b2g     
     6 b2u         7 b3g         8 b3u     
 
  Orbital symmetries:
 
     1 ag          2 b2u         3 b3u         4 b1g         5 ag      
     6 b2u         7 b3u         8 b1g         9 ag         10 b3u     
    11 ag         12 b2u        13 b3u        14 ag         15 b1g     
    16 b2u        17 b3u        18 ag         19 b1g        20 b2u     
    21 ag         22 b3u        23 ag         24 b1u        25 b1g     
    26 b2u        27 b3u        28 b2u        29 b3g        30 b1g     
    31 ag         32 b2g        33 b1u        34 au         35 b3g     
    36 b2g        37 b1u        38 ag         39 au         40 b2u     
    41 b3u        42 ag         43 b3u        44 b1g     
 

 Starting SCF solution at      18.2s



 ----------------------------------------------
         Quadratically convergent ROHF

 Convergence threshold     :          1.000E-08
 Maximum no. of iterations :          200
 Final Fock-matrix accuracy:          1.000E-08
 ----------------------------------------------


              iter       energy          gnorm     gmax       time
             ----- ------------------- --------- --------- --------
                 1     -383.2751371443  1.04D+00  2.27D-01      3.3
                 2     -383.3811077797  2.07D-01  3.30D-02      4.4
                 3     -383.3843762244  1.37D-02  4.64D-03      5.7
                 4     -383.3844096334  4.79D-05  1.53D-05      6.9
                 5     -383.3844096336  1.79D-09  5.33D-10      9.0


       Final RHF  results 
       ------------------ 

         Total SCF energy =   -383.384409633635
      One-electron energy =  -1427.321151036129
      Two-electron energy =    584.930313920638
 Nuclear repulsion energy =    459.006427481855

        Time for solution =      6.6s


 
       Symmetry analysis of molecular orbitals - final
       -----------------------------------------------
 
  Numbering of irreducible representations: 
 
     1 ag          2 au          3 b1g         4 b1u         5 b2g     
     6 b2u         7 b3g         8 b3u     
 
  Orbital symmetries:
 
     1 ag          2 b3u         3 b2u         4 ag          5 b1g     
     6 b3u         7 b2u         8 ag          9 b1g        10 b3u     
    11 ag         12 b2u        13 b3u        14 ag         15 b1g     
    16 b2u        17 b3u        18 ag         19 b1g        20 b2u     
    21 ag         22 b3u        23 ag         24 b2u        25 b1g     
    26 b3u        27 b1u        28 b2u        29 b1g        30 ag      
    31 b3g        32 b2g        33 b1u        34 au         35 b3g     
    36 b2g        37 b1u        38 ag         39 b3u        40 b2u     
    41 ag         42 b1g        43 b3u        44 b2u     
 
             Final eigenvalues
             -----------------

              1      
    1  -11.2452
    2  -11.2442
    3  -11.2399
    4  -11.2399
    5  -11.2395
    6  -11.2394
    7  -11.2385
    8  -11.2385
    9  -11.2379
   10  -11.2379
   11   -1.1777
   12   -1.1110
   13   -1.0515
   14   -1.0092
   15   -0.9823
   16   -0.8543
   17   -0.8364
   18   -0.8112
   19   -0.7061
   20   -0.6988
   21   -0.6770
   22   -0.6222
   23   -0.6101
   24   -0.5833
   25   -0.5822
   26   -0.5630
   27   -0.5324
   28   -0.5224
   29   -0.4868
   30   -0.4744
   31   -0.4478
   32   -0.3845
   33   -0.3174
   34   -0.2876
   35    0.0908
   36    0.1212
   37    0.1794
   38    0.1849
   39    0.2002
   40    0.2002
   41    0.2350
   42    0.2399
   43    0.2539
   44    0.2755
 
                       ROHF Final Molecular Orbital Analysis
                       -------------------------------------
 
 Vector   11  Occ=2.000000D+00  E=-1.177697D+00  Symmetry=ag
              MO Center=  4.9D-17, -1.5D-16, -9.7D-32, r^2= 3.2D+00
   Bfn.  Coefficient  Atom+Function         Bfn.  Coefficient  Atom+Function  
  ----- ------------  ---------------      ----- ------------  ---------------
   114      0.201109   9 C  s               128      0.201109  10 C  s         
 
 Vector   12  Occ=2.000000D+00  E=-1.111032D+00  Symmetry=b2u
              MO Center=  4.2D-17, -1.4D-17, -9.0D-32, r^2= 5.5D+00
   Bfn.  Coefficient  Atom+Function         Bfn.  Coefficient  Atom+Function  
  ----- ------------  ---------------      ----- ------------  ---------------
    16      0.176766   2 C  s                30      0.176766   3 C  s         
    72     -0.176766   6 C  s                86     -0.176766   7 C  s         
 
 Vector   13  Occ=2.000000D+00  E=-1.051485D+00  Symmetry=b3u
              MO Center= -1.2D-15, -6.9D-17,  1.7D-17, r^2= 3.9D+00
   Bfn.  Coefficient  Atom+Function         Bfn.  Coefficient  Atom+Function  
  ----- ------------  ---------------      ----- ------------  ---------------
     2      0.174281   1 C  s                44     -0.174281   4 C  s         
    58     -0.174281   5 C  s               100      0.174281   8 C  s         
   114      0.151686   9 C  s               128     -0.151686  10 C  s         
 
 Vector   14  Occ=2.000000D+00  E=-1.009212D+00  Symmetry=ag
              MO Center=  1.7D-15,  7.8D-15, -2.8D-17, r^2= 5.3D+00
   Bfn.  Coefficient  Atom+Function         Bfn.  Coefficient  Atom+Function  
  ----- ------------  ---------------      ----- ------------  ---------------
   114     -0.183542   9 C  s               128     -0.183542  10 C  s         
    16      0.172352   2 C  s                30      0.172352   3 C  s         
    72      0.172352   6 C  s                86      0.172352   7 C  s         
 
 Vector   15  Occ=2.000000D+00  E=-9.822622D-01  Symmetry=b1g
              MO Center=  2.4D-17,  2.6D-16, -6.3D-19, r^2= 5.5D+00
   Bfn.  Coefficient  Atom+Function         Bfn.  Coefficient  Atom+Function  
  ----- ------------  ---------------      ----- ------------  ---------------
     2      0.174016   1 C  s                44     -0.174016   4 C  s         
    58      0.174016   5 C  s               100     -0.174016   8 C  s         
 
 Vector   16  Occ=2.000000D+00  E=-8.543234D-01  Symmetry=b2u
              MO Center= -4.2D-17, -6.0D-15,  4.6D-31, r^2= 6.2D+00
   Bfn.  Coefficient  Atom+Function         Bfn.  Coefficient  Atom+Function  
  ----- ------------  ---------------      ----- ------------  ---------------
   117     -0.156592   9 C  py              131     -0.156592  10 C  py        
 
 Vector   17  Occ=2.000000D+00  E=-8.363526D-01  Symmetry=b3u
              MO Center=  5.8D-16,  1.1D-16, -3.5D-18, r^2= 5.9D+00
   Bfn.  Coefficient  Atom+Function         Bfn.  Coefficient  Atom+Function  
  ----- ------------  ---------------      ----- ------------  ---------------
     5      0.168965   1 C  py               47     -0.168965   4 C  py        
    61      0.168965   5 C  py              103     -0.168965   8 C  py        
   114      0.150729   9 C  s               128     -0.150729  10 C  s         
 
 Vector   18  Occ=2.000000D+00  E=-8.112168D-01  Symmetry=ag
              MO Center= -9.5D-16,  5.6D-17, -3.0D-32, r^2= 4.8D+00
   Bfn.  Coefficient  Atom+Function         Bfn.  Coefficient  Atom+Function  
  ----- ------------  ---------------      ----- ------------  ---------------
   116      0.193970   9 C  px              130     -0.193970  10 C  px        
 
 Vector   19  Occ=2.000000D+00  E=-7.061376D-01  Symmetry=b1g
              MO Center= -3.3D-17, -5.6D-17, -6.9D-32, r^2= 7.7D+00
   Bfn.  Coefficient  Atom+Function         Bfn.  Coefficient  Atom+Function  
  ----- ------------  ---------------      ----- ------------  ---------------
   146      0.155937  12 H  s               151     -0.155937  13 H  s         
   166      0.155937  16 H  s               171     -0.155937  17 H  s         
   117      0.151624   9 C  py              131     -0.151624  10 C  py        
 
 Vector   20  Occ=2.000000D+00  E=-6.987555D-01  Symmetry=b2u
              MO Center=  5.8D-17, -3.9D-16, -5.3D-33, r^2= 6.6D+00
   Bfn.  Coefficient  Atom+Function         Bfn.  Coefficient  Atom+Function  
  ----- ------------  ---------------      ----- ------------  ---------------
     4      0.151166   1 C  px               46     -0.151166   4 C  px        
    60      0.151166   5 C  px              102     -0.151166   8 C  px        
 
 Vector   21  Occ=2.000000D+00  E=-6.770090D-01  Symmetry=ag
              MO Center= -4.9D-16,  3.3D-16,  5.9D-19, r^2= 7.2D+00
   Bfn.  Coefficient  Atom+Function         Bfn.  Coefficient  Atom+Function  
  ----- ------------  ---------------      ----- ------------  ---------------
    19      0.207622   2 C  py               33      0.207622   3 C  py        
    75     -0.207622   6 C  py               89     -0.207622   7 C  py        
 
 Vector   22  Occ=2.000000D+00  E=-6.222058D-01  Symmetry=b3u
              MO Center=  1.6D-14,  9.8D-15,  3.1D-17, r^2= 6.3D+00
   Bfn.  Coefficient  Atom+Function         Bfn.  Coefficient  Atom+Function  
  ----- ------------  ---------------      ----- ------------  ---------------
   115     -0.210514   9 C  s               129      0.210514  10 C  s         
     4      0.199185   1 C  px               46      0.199185   4 C  px        
    60      0.199185   5 C  px              102      0.199185   8 C  px        
   141      0.199739  11 H  s               156     -0.199739  14 H  s         
   161     -0.199739  15 H  s               176      0.199739  18 H  s         
 
 Vector   23  Occ=2.000000D+00  E=-6.100702D-01  Symmetry=ag
              MO Center=  1.2D-15,  8.3D-17,  2.2D-17, r^2= 6.1D+00
   Bfn.  Coefficient  Atom+Function         Bfn.  Coefficient  Atom+Function  
  ----- ------------  ---------------      ----- ------------  ---------------
   116     -0.240463   9 C  px              130      0.240463  10 C  px        
    18      0.223072   2 C  px               32     -0.223072   3 C  px        
    74     -0.223072   6 C  px               88      0.223072   7 C  px        
 
 Vector   24  Occ=2.000000D+00  E=-5.833139D-01  Symmetry=b2u
              MO Center= -9.3D-17,  2.8D-17, -6.4D-32, r^2= 5.4D+00
   Bfn.  Coefficient  Atom+Function         Bfn.  Coefficient  Atom+Function  
  ----- ------------  ---------------      ----- ------------  ---------------
   117     -0.216810   9 C  py              131     -0.216810  10 C  py        
     5      0.211824   1 C  py               47      0.211824   4 C  py        
    61      0.211824   5 C  py              103      0.211824   8 C  py        
    19     -0.184775   2 C  py               33     -0.184775   3 C  py        
    75     -0.184775   6 C  py               89     -0.184775   7 C  py        
 
 Vector   25  Occ=2.000000D+00  E=-5.821607D-01  Symmetry=b1g
              MO Center= -1.4D-16, -3.7D-15,  3.9D-31, r^2= 5.8D+00
   Bfn.  Coefficient  Atom+Function         Bfn.  Coefficient  Atom+Function  
  ----- ------------  ---------------      ----- ------------  ---------------
     4      0.228546   1 C  px               46      0.228546   4 C  px        
    60     -0.228546   5 C  px              102     -0.228546   8 C  px        
   141      0.190950  11 H  s               156     -0.190950  14 H  s         
   161      0.190950  15 H  s               176     -0.190950  18 H  s         
 
 Vector   26  Occ=2.000000D+00  E=-5.630034D-01  Symmetry=b3u
              MO Center= -5.9D-16, -4.4D-16, -5.2D-32, r^2= 8.9D+00
   Bfn.  Coefficient  Atom+Function         Bfn.  Coefficient  Atom+Function  
  ----- ------------  ---------------      ----- ------------  ---------------
    19      0.213600   2 C  py               33     -0.213600   3 C  py        
    75      0.213600   6 C  py               89     -0.213600   7 C  py        
   146     -0.191674  12 H  s               151      0.191674  13 H  s         
   166      0.191674  16 H  s               171     -0.191674  17 H  s         
 
 Vector   27  Occ=2.000000D+00  E=-5.323749D-01  Symmetry=b1u
              MO Center= -1.4D-17, -1.3D-17, -2.3D-21, r^2= 3.9D+00
   Bfn.  Coefficient  Atom+Function         Bfn.  Coefficient  Atom+Function  
  ----- ------------  ---------------      ----- ------------  ---------------
   118      0.227625   9 C  pz              132      0.227625  10 C  pz        
     6      0.159040   1 C  pz               48      0.159040   4 C  pz        
    62      0.159040   5 C  pz              104      0.159040   8 C  pz        
 
 Vector   28  Occ=2.000000D+00  E=-5.223834D-01  Symmetry=b2u
              MO Center= -1.2D-15, -5.6D-17, -4.1D-18, r^2= 7.5D+00
   Bfn.  Coefficient  Atom+Function         Bfn.  Coefficient  Atom+Function  
  ----- ------------  ---------------      ----- ------------  ---------------
    18      0.234853   2 C  px               32     -0.234853   3 C  px        
    74      0.234853   6 C  px               88     -0.234853   7 C  px        
 
 Vector   29  Occ=2.000000D+00  E=-4.868245D-01  Symmetry=b1g
              MO Center=  2.6D-17, -3.9D-16, -1.9D-32, r^2= 6.4D+00
   Bfn.  Coefficient  Atom+Function         Bfn.  Coefficient  Atom+Function  
  ----- ------------  ---------------      ----- ------------  ---------------
   117     -0.219253   9 C  py              131      0.219253  10 C  py        
     5      0.218142   1 C  py               47     -0.218142   4 C  py        
    61     -0.218142   5 C  py              103      0.218142   8 C  py        
    19     -0.180966   2 C  py               33      0.180966   3 C  py        
    75      0.180966   6 C  py               89     -0.180966   7 C  py        
 
 Vector   30  Occ=2.000000D+00  E=-4.743617D-01  Symmetry=ag
              MO Center=  7.6D-15,  2.8D-16, -4.5D-18, r^2= 5.5D+00
   Bfn.  Coefficient  Atom+Function         Bfn.  Coefficient  Atom+Function  
  ----- ------------  ---------------      ----- ------------  ---------------
   116      0.271832   9 C  px              130     -0.271832  10 C  px        
     4     -0.162495   1 C  px               46      0.162495   4 C  px        
    60      0.162495   5 C  px              102     -0.162495   8 C  px        
   141     -0.160063  11 H  s               156     -0.160063  14 H  s         
   161     -0.160063  15 H  s               176     -0.160063  18 H  s         
 
 Vector   31  Occ=2.000000D+00  E=-4.477745D-01  Symmetry=b3g
              MO Center= -7.0D-17,  2.5D-16,  1.8D-16, r^2= 6.4D+00
   Bfn.  Coefficient  Atom+Function         Bfn.  Coefficient  Atom+Function  
  ----- ------------  ---------------      ----- ------------  ---------------
    20      0.222723   2 C  pz               34      0.222723   3 C  pz        
    76     -0.222723   6 C  pz               90     -0.222723   7 C  pz        
 
 Vector   32  Occ=2.000000D+00  E=-3.844928D-01  Symmetry=b2g
              MO Center= -1.8D-15,  1.4D-14,  3.1D-16, r^2= 4.4D+00
   Bfn.  Coefficient  Atom+Function         Bfn.  Coefficient  Atom+Function  
  ----- ------------  ---------------      ----- ------------  ---------------
     6      0.218913   1 C  pz               48     -0.218913   4 C  pz        
    62     -0.218913   5 C  pz              104      0.218913   8 C  pz        
   118      0.180963   9 C  pz              132     -0.180963  10 C  pz        
     9      0.165697   1 C  pz               51     -0.165697   4 C  pz        
    65     -0.165697   5 C  pz              107      0.165697   8 C  pz        
 
 Vector   33  Occ=2.000000D+00  E=-3.174349D-01  Symmetry=b1u
              MO Center=  4.4D-17, -8.8D-17, -2.4D-18, r^2= 5.2D+00
   Bfn.  Coefficient  Atom+Function         Bfn.  Coefficient  Atom+Function  
  ----- ------------  ---------------      ----- ------------  ---------------
   118      0.258896   9 C  pz              132      0.258896  10 C  pz        
    20     -0.214191   2 C  pz               34     -0.214191   3 C  pz        
    76     -0.214191   6 C  pz               90     -0.214191   7 C  pz        
   121      0.208675   9 C  pz              135      0.208675  10 C  pz        
    23     -0.176233   2 C  pz               37     -0.176233   3 C  pz        
 
 Vector   34  Occ=2.000000D+00  E=-2.875752D-01  Symmetry=au
              MO Center= -2.1D-17, -1.5D-14,  6.3D-19, r^2= 5.6D+00
   Bfn.  Coefficient  Atom+Function         Bfn.  Coefficient  Atom+Function  
  ----- ------------  ---------------      ----- ------------  ---------------
     6      0.236673   1 C  pz               48     -0.236673   4 C  pz        
    62      0.236673   5 C  pz              104     -0.236673   8 C  pz        
     9      0.203708   1 C  pz               51     -0.203708   4 C  pz        
    65      0.203708   5 C  pz              107     -0.203708   8 C  pz        
    20      0.156942   2 C  pz               34     -0.156942   3 C  pz        
 
 Vector   35  Occ=0.000000D+00  E= 9.078655D-02  Symmetry=b3g
              MO Center= -1.4D-16,  4.5D-16, -2.9D-16, r^2= 6.1D+00
   Bfn.  Coefficient  Atom+Function         Bfn.  Coefficient  Atom+Function  
  ----- ------------  ---------------      ----- ------------  ---------------
     9      0.357468   1 C  pz               51      0.357468   4 C  pz        
    65     -0.357468   5 C  pz              107     -0.357468   8 C  pz        
    23     -0.238150   2 C  pz               37     -0.238150   3 C  pz        
    79      0.238150   6 C  pz               93      0.238150   7 C  pz        
     6      0.231391   1 C  pz               48      0.231391   4 C  pz        
 
 Vector   36  Occ=0.000000D+00  E= 1.211546D-01  Symmetry=b2g
              MO Center=  5.5D-16,  1.5D-14,  6.4D-17, r^2= 5.9D+00
   Bfn.  Coefficient  Atom+Function         Bfn.  Coefficient  Atom+Function  
  ----- ------------  ---------------      ----- ------------  ---------------
   121     -0.403668   9 C  pz              135      0.403668  10 C  pz        
    23      0.397908   2 C  pz               37     -0.397908   3 C  pz        
    79     -0.397908   6 C  pz               93      0.397908   7 C  pz        
   118     -0.255964   9 C  pz              132      0.255964  10 C  pz        
    20      0.216140   2 C  pz               34     -0.216140   3 C  pz        
 
 Vector   37  Occ=0.000000D+00  E= 1.793760D-01  Symmetry=b1u
              MO Center= -7.3D-16,  1.2D-16, -1.6D-16, r^2= 5.3D+00
   Bfn.  Coefficient  Atom+Function         Bfn.  Coefficient  Atom+Function  
  ----- ------------  ---------------      ----- ------------  ---------------
     9      0.476724   1 C  pz               51      0.476724   4 C  pz        
    65      0.476724   5 C  pz              107      0.476724   8 C  pz        
   121     -0.402962   9 C  pz              135     -0.402962  10 C  pz        
    23     -0.220220   2 C  pz               37     -0.220220   3 C  pz        
    79     -0.220220   6 C  pz               93     -0.220220   7 C  pz        
 
 Vector   38  Occ=0.000000D+00  E= 1.849184D-01  Symmetry=ag
              MO Center=  4.0D-15,  2.7D-15,  2.3D-17, r^2= 1.5D+01
   Bfn.  Coefficient  Atom+Function         Bfn.  Coefficient  Atom+Function  
  ----- ------------  ---------------      ----- ------------  ---------------
   147      0.706191  12 H  s               152      0.706191  13 H  s         
   167      0.706191  16 H  s               172      0.706191  17 H  s         
   142      0.667375  11 H  s               157      0.667375  14 H  s         
   162      0.667375  15 H  s               177      0.667375  18 H  s         
    17     -0.636492   2 C  s                31     -0.636492   3 C  s         
 
 Vector   39  Occ=0.000000D+00  E= 2.001855D-01  Symmetry=b3u
              MO Center= -1.3D-15,  6.7D-16, -3.7D-17, r^2= 1.3D+01
   Bfn.  Coefficient  Atom+Function         Bfn.  Coefficient  Atom+Function  
  ----- ------------  ---------------      ----- ------------  ---------------
   119      1.224244   9 C  px              133      1.224244  10 C  px        
   142      1.167984  11 H  s               157     -1.167984  14 H  s         
   162     -1.167984  15 H  s               177      1.167984  18 H  s         
   115     -1.081973   9 C  s               129      1.081973  10 C  s         
     7     -0.944061   1 C  px               49     -0.944061   4 C  px        
 
 Vector   40  Occ=0.000000D+00  E= 2.002024D-01  Symmetry=b2u
              MO Center= -7.2D-16, -8.9D-16, -1.1D-18, r^2= 1.7D+01
   Bfn.  Coefficient  Atom+Function         Bfn.  Coefficient  Atom+Function  
  ----- ------------  ---------------      ----- ------------  ---------------
   147      0.921618  12 H  s               152      0.921618  13 H  s         
   167     -0.921618  16 H  s               172     -0.921618  17 H  s         
    17     -0.696059   2 C  s                31     -0.696059   3 C  s         
    73      0.696059   6 C  s                87      0.696059   7 C  s         
   142      0.481465  11 H  s               157      0.481465  14 H  s         
 
 Vector   41  Occ=0.000000D+00  E= 2.350297D-01  Symmetry=ag
              MO Center=  2.6D-15,  3.3D-15,  1.8D-18, r^2= 1.6D+01
   Bfn.  Coefficient  Atom+Function         Bfn.  Coefficient  Atom+Function  
  ----- ------------  ---------------      ----- ------------  ---------------
   142      0.933817  11 H  s               157      0.933817  14 H  s         
   162      0.933817  15 H  s               177      0.933817  18 H  s         
   147     -0.872460  12 H  s               152     -0.872460  13 H  s         
   167     -0.872460  16 H  s               172     -0.872460  17 H  s         
     7     -0.665969   1 C  px               49      0.665969   4 C  px        
 
 Vector   42  Occ=0.000000D+00  E= 2.399283D-01  Symmetry=b1g
              MO Center= -1.2D-15,  1.3D-15, -2.2D-30, r^2= 1.8D+01
   Bfn.  Coefficient  Atom+Function         Bfn.  Coefficient  Atom+Function  
  ----- ------------  ---------------      ----- ------------  ---------------
   147      1.101550  12 H  s               152     -1.101550  13 H  s         
   167      1.101550  16 H  s               172     -1.101550  17 H  s         
     3     -0.858472   1 C  s                45      0.858472   4 C  s         
    59     -0.858472   5 C  s               101      0.858472   8 C  s         
    22      0.815520   2 C  py               36     -0.815520   3 C  py        
 
 Vector   43  Occ=0.000000D+00  E= 2.539057D-01  Symmetry=b3u
              MO Center= -4.0D-15,  4.4D-16,  3.3D-17, r^2= 1.9D+01
   Bfn.  Coefficient  Atom+Function         Bfn.  Coefficient  Atom+Function  
  ----- ------------  ---------------      ----- ------------  ---------------
   147      1.462134  12 H  s               152     -1.462134  13 H  s         
   167     -1.462134  16 H  s               172      1.462134  17 H  s         
   115      1.450957   9 C  s               129     -1.450957  10 C  s         
    22      1.096498   2 C  py               36     -1.096498   3 C  py        
    78      1.096498   6 C  py               92     -1.096498   7 C  py        
 
 Vector   44  Occ=0.000000D+00  E= 2.755048D-01  Symmetry=b2u
              MO Center= -4.1D-15, -2.2D-16, -9.6D-19, r^2= 1.5D+01
   Bfn.  Coefficient  Atom+Function         Bfn.  Coefficient  Atom+Function  
  ----- ------------  ---------------      ----- ------------  ---------------
   142      1.273503  11 H  s               157      1.273503  14 H  s         
   162     -1.273503  15 H  s               177     -1.273503  18 H  s         
     7     -0.726307   1 C  px               49      0.726307   4 C  px        
    63     -0.726307   5 C  px              105      0.726307   8 C  px        
   147     -0.671951  12 H  s               152     -0.671951  13 H  s         
 
 Vector   45  Occ=0.000000D+00  E= 2.780690D-01  Symmetry=au
              MO Center=  1.7D-16, -1.4D-14, -4.4D-20, r^2= 7.6D+00
   Bfn.  Coefficient  Atom+Function         Bfn.  Coefficient  Atom+Function  
  ----- ------------  ---------------      ----- ------------  ---------------
    23      0.599632   2 C  pz               37     -0.599632   3 C  pz        
    79      0.599632   6 C  pz               93     -0.599632   7 C  pz        
     9     -0.383227   1 C  pz               51      0.383227   4 C  pz        
    65     -0.383227   5 C  pz              107      0.383227   8 C  pz        
    20      0.234228   2 C  pz               34     -0.234228   3 C  pz        
 
 Vector   46  Occ=0.000000D+00  E= 2.955340D-01  Symmetry=b1g
              MO Center=  1.3D-14,  3.6D-15, -1.5D-18, r^2= 1.7D+01
   Bfn.  Coefficient  Atom+Function         Bfn.  Coefficient  Atom+Function  
  ----- ------------  ---------------      ----- ------------  ---------------
   120      2.150930   9 C  py              134     -2.150930  10 C  py        
     7     -1.744021   1 C  px               49     -1.744021   4 C  px        
    63      1.744021   5 C  px              105      1.744021   8 C  px        
   142      1.587458  11 H  s               157     -1.587458  14 H  s         
   162      1.587458  15 H  s               177     -1.587458  18 H  s         
 
 Vector   47  Occ=0.000000D+00  E= 3.896688D-01  Symmetry=b3u
              MO Center= -1.5D-15,  4.4D-15, -5.6D-18, r^2= 8.9D+00
   Bfn.  Coefficient  Atom+Function         Bfn.  Coefficient  Atom+Function  
  ----- ------------  ---------------      ----- ------------  ---------------
    17      2.025935   2 C  s                31     -2.025935   3 C  s         
    73     -2.025935   6 C  s                87      2.025935   7 C  s         
   119     -2.026403   9 C  px              133     -2.026403  10 C  px        
     8      1.660538   1 C  py               50     -1.660538   4 C  py        
    64      1.660538   5 C  py              106     -1.660538   8 C  py        
 
 Vector   48  Occ=0.000000D+00  E= 3.981947D-01  Symmetry=b2g
              MO Center=  6.7D-17, -7.3D-17, -1.3D-17, r^2= 5.7D+00
   Bfn.  Coefficient  Atom+Function         Bfn.  Coefficient  Atom+Function  
  ----- ------------  ---------------      ----- ------------  ---------------
   121      0.975650   9 C  pz              135     -0.975650  10 C  pz        
     9     -0.697727   1 C  pz               51      0.697727   4 C  pz        
    65      0.697727   5 C  pz              107     -0.697727   8 C  pz        
    23      0.540510   2 C  pz               37     -0.540510   3 C  pz        
    79     -0.540510   6 C  pz               93      0.540510   7 C  pz        
 
 Vector   49  Occ=0.000000D+00  E= 4.378708D-01  Symmetry=ag
              MO Center= -3.1D-16,  7.4D-16, -5.0D-18, r^2= 8.6D+00
   Bfn.  Coefficient  Atom+Function         Bfn.  Coefficient  Atom+Function  
  ----- ------------  ---------------      ----- ------------  ---------------
   115      3.299167   9 C  s               129      3.299167  10 C  s         
     3     -1.925478   1 C  s                45     -1.925478   4 C  s         
    59     -1.925478   5 C  s               101     -1.925478   8 C  s         
   119      1.306777   9 C  px              133     -1.306777  10 C  px        
     8     -1.036703   1 C  py               50     -1.036703   4 C  py        
 
 Vector   50  Occ=0.000000D+00  E= 4.462460D-01  Symmetry=ag
              MO Center= -5.0D-13, -5.4D-15, -2.6D-16, r^2= 9.3D+00
   Bfn.  Coefficient  Atom+Function         Bfn.  Coefficient  Atom+Function  
  ----- ------------  ---------------      ----- ------------  ---------------
   115      2.190319   9 C  s               129      2.190319  10 C  s         
     8     -1.794783   1 C  py               50     -1.794783   4 C  py        
    64      1.794783   5 C  py              106      1.794783   8 C  py        
    17     -1.731320   2 C  s                31     -1.731320   3 C  s         
    73     -1.731320   6 C  s                87     -1.731320   7 C  s         
 
 Vector   51  Occ=0.000000D+00  E= 4.686908D-01  Symmetry=b3u
              MO Center=  5.4D-13,  3.0D-15, -2.2D-17, r^2= 6.5D+00
   Bfn.  Coefficient  Atom+Function         Bfn.  Coefficient  Atom+Function  
  ----- ------------  ---------------      ----- ------------  ---------------
   115      1.418640   9 C  s               129     -1.418640  10 C  s         
     3      1.272647   1 C  s                45     -1.272647   4 C  s         
    59     -1.272647   5 C  s               101      1.272647   8 C  s         
    21     -1.197099   2 C  px               35     -1.197099   3 C  px        
    77     -1.197099   6 C  px               91     -1.197099   7 C  px        
 
 Vector   52  Occ=0.000000D+00  E= 4.693053D-01  Symmetry=b1g
              MO Center= -5.3D-16, -2.5D-15, -1.8D-19, r^2= 9.9D+00
   Bfn.  Coefficient  Atom+Function         Bfn.  Coefficient  Atom+Function  
  ----- ------------  ---------------      ----- ------------  ---------------
   120      1.764575   9 C  py              134     -1.764575  10 C  py        
    21     -1.710871   2 C  px               35     -1.710871   3 C  px        
    77      1.710871   6 C  px               91      1.710871   7 C  px        
    17      1.629201   2 C  s                31     -1.629201   3 C  s         
    73      1.629201   6 C  s                87     -1.629201   7 C  s         
 
 Vector   53  Occ=0.000000D+00  E= 4.738795D-01  Symmetry=b2u
              MO Center= -2.7D-15,  1.2D-14, -2.3D-19, r^2= 1.2D+01
   Bfn.  Coefficient  Atom+Function         Bfn.  Coefficient  Atom+Function  
  ----- ------------  ---------------      ----- ------------  ---------------
     3      2.400504   1 C  s                45      2.400504   4 C  s         
    59     -2.400504   5 C  s               101     -2.400504   8 C  s         
    17     -1.897440   2 C  s                31     -1.897440   3 C  s         
    73      1.897440   6 C  s                87      1.897440   7 C  s         
     7     -1.460429   1 C  px               49      1.460429   4 C  px        
 
 Vector   54  Occ=0.000000D+00  E= 5.129428D-01  Symmetry=b2u
              MO Center= -1.0D-13,  1.7D-14, -6.6D-17, r^2= 5.8D+00
   Bfn.  Coefficient  Atom+Function         Bfn.  Coefficient  Atom+Function  
  ----- ------------  ---------------      ----- ------------  ---------------
   120      2.063408   9 C  py              134      2.063408  10 C  py        
     8      1.233604   1 C  py               50      1.233604   4 C  py        
    64      1.233604   5 C  py              106      1.233604   8 C  py        
     7     -1.186657   1 C  px               49      1.186657   4 C  px        
    63     -1.186657   5 C  px              105      1.186657   8 C  px        
 

 center of mass
 --------------
 x =  -0.00000000 y =  -0.00000000 z =   0.00000000

 moments of inertia (a.u.)
 ------------------
        1455.909977521436          -0.000000000000           0.000000000000
          -0.000000000000         574.329834730527           0.000000000000
           0.000000000000           0.000000000000        2030.239812251962
 
  Mulliken analysis of the total density
  --------------------------------------

    Atom       Charge   Shell Charges
 -----------   ------   -------------------------------------------------------
    1 C    6     5.97   2.00  0.66  0.43  2.01  0.78  0.08
    2 C    6     6.01   2.00  0.66  0.43  2.01  0.83  0.08
    3 C    6     6.01   2.00  0.66  0.43  2.01  0.83  0.08
    4 C    6     5.97   2.00  0.66  0.43  2.01  0.78  0.08
    5 C    6     5.97   2.00  0.66  0.43  2.01  0.78  0.08
    6 C    6     6.01   2.00  0.66  0.43  2.01  0.83  0.08
    7 C    6     6.01   2.00  0.66  0.43  2.01  0.83  0.08
    8 C    6     5.97   2.00  0.66  0.43  2.01  0.78  0.08
    9 C    6     6.11   2.00  0.67  0.44  2.03  0.86  0.10
   10 C    6     6.11   2.00  0.67  0.44  2.03  0.86  0.10
   11 H    1     0.99   0.76  0.19  0.03
   12 H    1     0.98   0.76  0.18  0.03
   13 H    1     0.98   0.76  0.18  0.03
   14 H    1     0.99   0.76  0.19  0.03
   15 H    1     0.99   0.76  0.19  0.03
   16 H    1     0.98   0.76  0.18  0.03
   17 H    1     0.98   0.76  0.18  0.03
   18 H    1     0.99   0.76  0.19  0.03
 
       Multipole analysis of the density wrt the origin
       ------------------------------------------------
 
     L   x y z        total         open         nuclear
     -   - - -        -----         ----         -------
     0   0 0 0     -0.000000      0.000000     68.000000
 
     1   1 0 0     -0.000000      0.000000     -0.000000
     1   0 1 0     -0.000000      0.000000     -0.000000
     1   0 0 1     -0.000000      0.000000      0.000000
 
     2   2 0 0    -38.300324      0.000000    341.642184
     2   1 1 0      0.000000      0.000000      0.000000
     2   1 0 1      0.000000      0.000000      0.000000
     2   0 2 0    -38.048074      0.000000    819.061040
     2   0 1 1      0.000000      0.000000      0.000000
     2   0 0 2    -48.394148      0.000000      0.000000
 
                   NWChem Extensible Many-Electron Theory Module
                   ---------------------------------------------
 
              ======================================================
                   This portion of the program was automatically
                  generated by a Tensor Contraction Engine (TCE).
                  The development of this portion of the program
                 and TCE was supported by US Department of Energy,
                Office of Science, Office of Basic Energy Science.
                      TCE is a product of Battelle and PNNL.
              Please cite: S.Hirata, J.Phys.Chem.A 107, 9887 (2003).
              ======================================================
 
            General Information
            -------------------
      Number of processors :    48
         Wavefunction type : Restricted Hartree-Fock
          No. of electrons :    68
           Alpha electrons :    34
            Beta electrons :    34
           No. of orbitals :   360
            Alpha orbitals :   180
             Beta orbitals :   180
        Alpha frozen cores :    10
         Beta frozen cores :    10
     Alpha frozen virtuals :     0
      Beta frozen virtuals :     0
         Spin multiplicity : singlet 
    Number of AO functions :   180
       Number of AO shells :    84
        Use of symmetry is : on 
      Symmetry adaption is : on 
         Schwarz screening : 0.10D-07
 
          Correlation Information
          -----------------------
          Calculation type : Coupled-cluster singles & doubles                           
   Perturbative correction : none                                                        
            Max iterations :      100
        Residual threshold : 0.10D-05
     T(0) DIIS level shift : 0.00D+00
     L(0) DIIS level shift : 0.00D+00
     T(1) DIIS level shift : 0.00D+00
     L(1) DIIS level shift : 0.00D+00
     T(R) DIIS level shift : 0.00D+00
     T(I) DIIS level shift : 0.00D+00
   CC-T/L Amplitude update :  5-th order DIIS
     No. of excited states :     1
               Target root :     1
           Target symmetry : none
      Symmetry restriction : off
   Dipole & oscillator str : off
                I/O scheme : Global Array Library
        L-threshold :  0.10D-05
        EOM-threshold :  0.10D-05
 no EOMCCSD initial starts read in
 TCE RESTART OPTIONS
 READ_INT:   F
 WRITE_INT:  F
 READ_TA:    F
 WRITE_TA:   F
 READ_XA:    F
 WRITE_XA:   F
 READ_IN3:   F
 WRITE_IN3:  F
 SLICE:      F
 D4D5:       F
 
            Memory Information
            ------------------
          Available GA space size is    ********** doubles
          Available MA space size is     259514436 doubles
 
 Maximum block size supplied by input
 Maximum block size        40 doubles

 tile_dim =     28

 Block   Spin    Irrep     Size     Offset   Alpha
 -------------------------------------------------
   1    alpha     ag     6 doubles       0       1
   2    alpha     au     1 doubles       6       2
   3    alpha     b1g    4 doubles       7       3
   4    alpha     b1u    2 doubles      11       4
   5    alpha     b2g    1 doubles      13       5
   6    alpha     b2u    5 doubles      14       6
   7    alpha     b3g    1 doubles      19       7
   8    alpha     b3u    4 doubles      20       8
   9    beta      ag     6 doubles      24       1
  10    beta      au     1 doubles      30       2
  11    beta      b1g    4 doubles      31       3
  12    beta      b1u    2 doubles      35       4
  13    beta      b2g    1 doubles      37       5
  14    beta      b2u    5 doubles      38       6
  15    beta      b3g    1 doubles      43       7
  16    beta      b3u    4 doubles      44       8
  17    alpha     ag    26 doubles      48      17
  18    alpha     au    10 doubles      74      18
  19    alpha     b1g   25 doubles      84      19
  20    alpha     b1u   11 doubles     109      20
  21    alpha     b2g   12 doubles     120      21
  22    alpha     b2u   24 doubles     132      22
  23    alpha     b3g   10 doubles     156      23
  24    alpha     b3u   28 doubles     166      24
  25    beta      ag    26 doubles     194      17
  26    beta      au    10 doubles     220      18
  27    beta      b1g   25 doubles     230      19
  28    beta      b1u   11 doubles     255      20
  29    beta      b2g   12 doubles     266      21
  30    beta      b2u   24 doubles     278      22
  31    beta      b3g   10 doubles     302      23
  32    beta      b3u   28 doubles     312      24

 Global array virtual files algorithm will be used

 Parallel file system coherency ......... OK
 
 Fock matrix recomputed
 1-e file size   =             4310
 1-e file name   = ./naphta_ip_ccsd_ccpvdz.f1
 Cpu & wall time / sec            0.7            0.7
 4-electron integrals stored in orbital form
 
 v2    file size   =         21360487
 4-index algorithm nr.  13 is used
 imaxsize =       45
 imaxsize ichop =        0
 Cpu & wall time / sec          139.1          141.3
 T1-number-of-tasks                     8
 
 t1 file size   =              542
 t1 file name   = ./naphta_ip_ccsd_ccpvdz.t1
 t1 file handle =       -998
 T2-number-of-boxes                   688
 
 t2 file size   =          2263225
 t2 file name   = ./naphta_ip_ccsd_ccpvdz.t2
 t2 file handle =       -996

 CCSD iterations
 -----------------------------------------------------------------
 Iter          Residuum       Correlation     Cpu    Wall    V2*C2
 -----------------------------------------------------------------
    1   0.2778427799619  -1.2939338807514     3.7     4.0     1.6
    2   0.0778357509305  -1.3050808213423     3.6     3.9     1.5
    3   0.0299651092472  -1.3374316057121     3.6     3.9     1.5
    4   0.0136326934308  -1.3389088513013     3.7     4.0     1.6
    5   0.0069443111857  -1.3420845245987     3.7     4.0     1.6
 MICROCYCLE DIIS UPDATE:                     5                     5
    6   0.0027307408773  -1.3430972789115     3.7     4.0     1.5
    7   0.0012455458185  -1.3434207520844     3.7     4.0     1.6
    8   0.0007037039108  -1.3433957507702     3.6     4.0     1.5
    9   0.0003846223118  -1.3434234070683     3.7     4.0     1.6
   10   0.0002307446822  -1.3434363593566     3.7     4.0     1.6
 MICROCYCLE DIIS UPDATE:                    10                     5
   11   0.0000448944409  -1.3434522223863     3.7     4.0     1.5
   12   0.0000157255266  -1.3434570643552     3.6     3.9     1.5
   13   0.0000087495323  -1.3434600167646     3.7     4.0     1.6
   14   0.0000043137537  -1.3434604304672     3.6     3.9     1.5
   15   0.0000027889826  -1.3434607817049     3.6     3.9     1.5
 MICROCYCLE DIIS UPDATE:                    15                     5
   16   0.0000010113727  -1.3434609060190     3.7     4.0     1.6
   17   0.0000006375580  -1.3434610347874     3.7     4.0     1.6
 -----------------------------------------------------------------
 Iterations converged
 CCSD correlation energy / hartree =        -1.343461034787391
 CCSD total energy / hartree       =      -384.727870668422440

 Singles contributions

 Doubles contributions
 
 IPCCSD calculation
 
 Ground-state symmetry is ag  
 
 =========================================
 Excited-state calculation ( ag  symmetry)
 =========================================
 Dim. of EOMCC iter. space      500
 
 x1 file size   =                6
 
 x2 file size   =            19264

 EOMCCSD SOLVER TYPE  1

 No. of initial right vectors    1

 EOM-CCSD right-hand side iterations
 --------------------------------------------------------------
      Residuum       Omega / hartree  Omega / eV    Cpu    Wall
 --------------------------------------------------------------

 Iteration   1 using    1 trial vectors
   0.3800036535726   0.5327074610291   14.49571     1.7     2.0

 Iteration   2 using    2 trial vectors
   0.0581709550824   0.4197250882164   11.42131     1.5     1.8

 Iteration   3 using    3 trial vectors
   0.0182151063166   0.4170100651200   11.34743     1.5     1.8

 Iteration   4 using    4 trial vectors
   0.0059921846323   0.4165853625917   11.33587     1.6     1.8

 Iteration   5 using    5 trial vectors
   0.0030649882142   0.4164901660066   11.33328     1.6     1.9

 Iteration   6 using    6 trial vectors
   0.0014142929348   0.4165108596745   11.33384     1.6     1.9

 Iteration   7 using    7 trial vectors
   0.0008859690783   0.4165124365609   11.33388     1.6     1.9

 Iteration   8 using    8 trial vectors
   0.0004352347334   0.4165072041935   11.33374     1.6     1.9

 Iteration   9 using    9 trial vectors
   0.0001627861732   0.4165066725934   11.33373     1.6     1.9

 Iteration  10 using   10 trial vectors
   0.0000550618580   0.4165062105615   11.33372     1.6     1.9

 Iteration  11 using   11 trial vectors
   0.0000244049204   0.4165060537173   11.33371     1.6     1.9

 Iteration  12 using   12 trial vectors
   0.0000121432316   0.4165061436494   11.33371     1.6     1.9

 Iteration  13 using   13 trial vectors
   0.0000051467764   0.4165061723187   11.33371     1.6     1.9

 Iteration  14 using   14 trial vectors
   0.0000017554658   0.4165061549347   11.33371     1.6     1.9

 Iteration  15 using   15 trial vectors
   0.0000005640612   0.4165061518351   11.33371     1.6     1.9
 --------------------------------------------------------------
 Iterations converged
 largest EOMCCSD amplitudes: R1 and R2

 Singles contributions
    30ag  (alpha)        0.9596385342

 Doubles contributions
 
 =========================================
 Excited-state calculation ( au  symmetry)
 =========================================
 Dim. of EOMCC iter. space      500
 
 x1 file size   =                1
 
 x2 file size   =            14066

 EOMCCSD SOLVER TYPE  1

 No. of initial right vectors    1

 EOM-CCSD right-hand side iterations
 --------------------------------------------------------------
      Residuum       Omega / hartree  Omega / eV    Cpu    Wall
 --------------------------------------------------------------

 Iteration   1 using    1 trial vectors
   0.3061470363297   0.3705390120992   10.08288     1.6     1.8

 Iteration   2 using    2 trial vectors
   0.0450520689902   0.2927837095598    7.96705     1.5     1.8

 Iteration   3 using    3 trial vectors
   0.0126879388307   0.2911360428235    7.92222     1.5     1.8

 Iteration   4 using    4 trial vectors
   0.0036103833861   0.2909592447944    7.91741     1.5     1.8

 Iteration   5 using    5 trial vectors
   0.0009574650623   0.2909413378548    7.91692     1.6     1.9

 Iteration   6 using    6 trial vectors
   0.0002403542767   0.2909432807103    7.91697     1.6     1.8

 Iteration   7 using    7 trial vectors
   0.0000688569716   0.2909435257037    7.91698     1.6     1.8

 Iteration   8 using    8 trial vectors
   0.0000167886376   0.2909434355812    7.91698     1.6     1.8

 Iteration   9 using    9 trial vectors
   0.0000038111681   0.2909434588860    7.91698     1.5     1.9

 Iteration  10 using   10 trial vectors
   0.0000009088235   0.2909434612782    7.91698     1.6     1.8
 --------------------------------------------------------------
 Iterations converged
 largest EOMCCSD amplitudes: R1 and R2

 Singles contributions
    34au  (alpha)        0.9692502004

 Doubles contributions
 
 =========================================
 Excited-state calculation ( b1g symmetry)
 =========================================
 Dim. of EOMCC iter. space      500
 
 x1 file size   =                4
 
 x2 file size   =            19229

 EOMCCSD SOLVER TYPE  1

 No. of initial right vectors    1

 EOM-CCSD right-hand side iterations
 --------------------------------------------------------------
      Residuum       Omega / hartree  Omega / eV    Cpu    Wall
 --------------------------------------------------------------

 Iteration   1 using    1 trial vectors
   0.3922816013458   0.5474189346426   14.89603     1.5     1.8

 Iteration   2 using    2 trial vectors
   0.0567372146462   0.4272519155093   11.62612     1.6     1.9

 Iteration   3 using    3 trial vectors
   0.0186165374706   0.4246246138753   11.55463     1.6     1.9

 Iteration   4 using    4 trial vectors
   0.0073600306753   0.4241066063406   11.54053     1.6     1.9

 Iteration   5 using    5 trial vectors
   0.0041246432542   0.4239747302771   11.53694     1.6     1.9

 Iteration   6 using    6 trial vectors
   0.0015434444077   0.4240001715812   11.53764     1.6     1.8

 Iteration   7 using    7 trial vectors
   0.0007822580336   0.4240039396328   11.53774     1.6     1.9

 Iteration   8 using    8 trial vectors
   0.0005554277819   0.4239999926751   11.53763     1.6     1.9

 Iteration   9 using    9 trial vectors
   0.0003110504115   0.4239992854795   11.53761     1.6     1.9

 Iteration  10 using   10 trial vectors
   0.0001002632609   0.4239985285157   11.53759     1.6     1.9

 Iteration  11 using   11 trial vectors
   0.0000311306754   0.4239983366106   11.53759     1.6     1.9

 Iteration  12 using   12 trial vectors
   0.0000096404478   0.4239985006205   11.53759     1.6     1.9

 Iteration  13 using   13 trial vectors
   0.0000031251197   0.4239985258706   11.53759     1.6     1.9

 Iteration  14 using   14 trial vectors
   0.0000009502341   0.4239985196221   11.53759     1.5     1.8
 --------------------------------------------------------------
 Iterations converged
 largest EOMCCSD amplitudes: R1 and R2

 Singles contributions
    29b1g (alpha)       -0.9575548946

 Doubles contributions
 
 =========================================
 Excited-state calculation ( b1u symmetry)
 =========================================
 Dim. of EOMCC iter. space      500
 
 x1 file size   =                2
 
 x2 file size   =            14107

 EOMCCSD SOLVER TYPE  1

 No. of initial right vectors    2

 EOM-CCSD right-hand side iterations
 --------------------------------------------------------------
      Residuum       Omega / hartree  Omega / eV    Cpu    Wall
 --------------------------------------------------------------

 Iteration   1 using    2 trial vectors
   0.3144326900271   0.3993204340967   10.86607     3.1     3.7

 Iteration   2 using    3 trial vectors
   0.0482488908660   0.3173216046145    8.63476     1.6     1.8

 Iteration   3 using    4 trial vectors
   0.0138575685016   0.3151995384003    8.57702     1.5     1.8

 Iteration   4 using    5 trial vectors
   0.0039623273026   0.3150117655862    8.57191     1.6     1.8

 Iteration   5 using    6 trial vectors
   0.0012287969609   0.3149946472064    8.57144     1.6     1.9

 Iteration   6 using    7 trial vectors
   0.0003902629086   0.3149979332478    8.57153     1.6     1.9

 Iteration   7 using    8 trial vectors
   0.0001140260856   0.3149985989224    8.57155     1.6     1.9

 Iteration   8 using    9 trial vectors
   0.0000287359718   0.3149984363370    8.57155     1.6     1.9

 Iteration   9 using   10 trial vectors
   0.0000074405061   0.3149984492801    8.57155     1.6     1.9

 Iteration  10 using   11 trial vectors
   0.0000021178728   0.3149984517100    8.57155     1.6     1.9

 Iteration  11 using   12 trial vectors
   0.0000005176182   0.3149984497809    8.57155     1.5     1.8
 --------------------------------------------------------------
 Iterations converged
 largest EOMCCSD amplitudes: R1 and R2

 Singles contributions
    33b1u (alpha)       -0.9667961957

 Doubles contributions
 
 =========================================
 Excited-state calculation ( b2g symmetry)
 =========================================
 Dim. of EOMCC iter. space      500
 
 x1 file size   =                1
 
 x2 file size   =            14181

 EOMCCSD SOLVER TYPE  1

 No. of initial right vectors    1

 EOM-CCSD right-hand side iterations
 --------------------------------------------------------------
      Residuum       Omega / hartree  Omega / eV    Cpu    Wall
 --------------------------------------------------------------

 Iteration   1 using    1 trial vectors
   0.3150894581496   0.4579147937757   12.46050     1.6     1.8

 Iteration   2 using    2 trial vectors
   0.0486299887051   0.3688956199673   10.03816     1.5     1.8

 Iteration   3 using    3 trial vectors
   0.0137052924501   0.3664337904805    9.97118     1.6     1.8

 Iteration   4 using    4 trial vectors
   0.0042311795865   0.3662101326442    9.96509     1.5     1.8

 Iteration   5 using    5 trial vectors
   0.0014702125993   0.3661763200801    9.96417     1.5     1.8

 Iteration   6 using    6 trial vectors
   0.0006288915620   0.3661755262850    9.96415     1.6     1.8

 Iteration   7 using    7 trial vectors
   0.0002064970547   0.3661756653940    9.96415     1.5     1.8

 Iteration   8 using    8 trial vectors
   0.0000622433951   0.3661751042416    9.96414     1.5     1.8

 Iteration   9 using    9 trial vectors
   0.0000179957126   0.3661750463665    9.96413     1.6     1.9

 Iteration  10 using   10 trial vectors
   0.0000058068319   0.3661750436265    9.96413     1.6     1.9

 Iteration  11 using   11 trial vectors
   0.0000015921456   0.3661750316004    9.96413     1.6     1.9

 Iteration  12 using   12 trial vectors
   0.0000004593603   0.3661750293667    9.96413     1.6     1.9
 --------------------------------------------------------------
 Iterations converged
 largest EOMCCSD amplitudes: R1 and R2

 Singles contributions
    32b2g (alpha)       -0.9619997033

 Doubles contributions
 
 =========================================
 Excited-state calculation ( b2u symmetry)
 =========================================
 Dim. of EOMCC iter. space      500
 
 x1 file size   =                5
 
 x2 file size   =            19155

 EOMCCSD SOLVER TYPE  1

 No. of initial right vectors    1

 EOM-CCSD right-hand side iterations
 --------------------------------------------------------------
      Residuum       Omega / hartree  Omega / eV    Cpu    Wall
 --------------------------------------------------------------

 Iteration   1 using    1 trial vectors
   0.3724215971553   0.5787669391666   15.74906     1.6     1.8

 Iteration   2 using    2 trial vectors
   0.0590743624942   0.4651388304325   12.65708     1.5     1.8

 Iteration   3 using    3 trial vectors
   0.0193254677213   0.4618279305086   12.56698     1.6     1.9

 Iteration   4 using    4 trial vectors
   0.0065985592779   0.4612835450100   12.55217     1.6     1.9

 Iteration   5 using    5 trial vectors
   0.0031798985708   0.4611884275357   12.54958     1.5     1.8

 Iteration   6 using    6 trial vectors
   0.0021626257307   0.4612037620118   12.55000     1.6     1.9

 Iteration   7 using    7 trial vectors
   0.0018559823363   0.4612053544072   12.55004     1.6     1.9

 Iteration   8 using    8 trial vectors
   0.0015049991305   0.4611938705318   12.54973     1.6     1.9

 Iteration   9 using    9 trial vectors
   0.0007935238694   0.4611863016502   12.54952     1.6     1.9

 Iteration  10 using   10 trial vectors
   0.0003618114939   0.4611853419055   12.54950     1.6     1.9

 Iteration  11 using   11 trial vectors
   0.0001996231846   0.4611845321660   12.54947     1.6     1.9

 Iteration  12 using   12 trial vectors
   0.0000940838339   0.4611851945084   12.54949     1.6     1.9

 Iteration  13 using   13 trial vectors
   0.0000335840918   0.4611855179284   12.54950     1.6     1.9

 Iteration  14 using   14 trial vectors
   0.0000106091137   0.4611854006201   12.54950     1.6     1.9

 Iteration  15 using   15 trial vectors
   0.0000035979489   0.4611853861375   12.54950     1.6     1.9

 Iteration  16 using   16 trial vectors
   0.0000012451622   0.4611853910827   12.54950     1.6     1.9

 Iteration  17 using   17 trial vectors
   0.0000004126766   0.4611853911018   12.54950     1.6     1.9
 --------------------------------------------------------------
 Iterations converged
 largest EOMCCSD amplitudes: R1 and R2

 Singles contributions
    28b2u (alpha)       -0.9553195623

 Doubles contributions
 
 =========================================
 Excited-state calculation ( b3g symmetry)
 =========================================
 Dim. of EOMCC iter. space      500
 
 x1 file size   =                1
 
 x2 file size   =            14048

 EOMCCSD SOLVER TYPE  1

 No. of initial right vectors    1

 EOM-CCSD right-hand side iterations
 --------------------------------------------------------------
      Residuum       Omega / hartree  Omega / eV    Cpu    Wall
 --------------------------------------------------------------

 Iteration   1 using    1 trial vectors
   0.3147324594888   0.5133363643751   13.96860     1.6     1.9

 Iteration   2 using    2 trial vectors
   0.0543871841878   0.4181428766776   11.37825     1.5     1.8

 Iteration   3 using    3 trial vectors
   0.0188292984452   0.4139290604876   11.26359     1.5     1.8

 Iteration   4 using    4 trial vectors
   0.0057775677792   0.4135247845463   11.25259     1.5     1.8

 Iteration   5 using    5 trial vectors
   0.0015918994934   0.4134747830844   11.25123     1.6     1.8

 Iteration   6 using    6 trial vectors
   0.0005478583679   0.4134711134020   11.25113     1.6     1.8

 Iteration   7 using    7 trial vectors
   0.0002417632249   0.4134742799555   11.25121     1.5     1.9

 Iteration   8 using    8 trial vectors
   0.0001249552796   0.4134745514676   11.25122     1.6     1.8

 Iteration   9 using    9 trial vectors
   0.0000563005830   0.4134738585194   11.25120     1.6     1.8

 Iteration  10 using   10 trial vectors
   0.0000192368607   0.4134737198247   11.25120     1.6     1.9

 Iteration  11 using   11 trial vectors
   0.0000059723250   0.4134736926692   11.25120     1.6     1.9

 Iteration  12 using   12 trial vectors
   0.0000020082239   0.4134736761277   11.25120     1.6     1.9

 Iteration  13 using   13 trial vectors
   0.0000005896613   0.4134736768698   11.25120     1.6     1.8
 --------------------------------------------------------------
 Iterations converged
 largest EOMCCSD amplitudes: R1 and R2

 Singles contributions
    31b3g (alpha)       -0.9503184907

 Doubles contributions
 
 =========================================
 Excited-state calculation ( b3u symmetry)
 =========================================
 Dim. of EOMCC iter. space      500
 
 x1 file size   =                4
 
 x2 file size   =            19394

 EOMCCSD SOLVER TYPE  1

 No. of initial right vectors    1

 EOM-CCSD right-hand side iterations
 --------------------------------------------------------------
      Residuum       Omega / hartree  Omega / eV    Cpu    Wall
 --------------------------------------------------------------

 Iteration   1 using    1 trial vectors
   0.3694701219945   0.6167636122382   16.78300     1.5     1.8

 Iteration   2 using    2 trial vectors
   0.0618915585896   0.5036502685947   13.70503     1.6     1.9

 Iteration   3 using    3 trial vectors
   0.0213763593708   0.4997129093848   13.59789     1.5     1.8

 Iteration   4 using    4 trial vectors
   0.0070725699254   0.4990632532303   13.58021     1.5     1.8

 Iteration   5 using    5 trial vectors
   0.0028806053184   0.4989426240513   13.57693     1.6     1.9

 Iteration   6 using    6 trial vectors
   0.0012784410700   0.4989548072659   13.57726     1.5     1.8

 Iteration   7 using    7 trial vectors
   0.0005365519586   0.4989621882002   13.57746     1.6     1.9

 Iteration   8 using    8 trial vectors
   0.0001875130542   0.4989624333906   13.57746     1.6     1.9

 Iteration   9 using    9 trial vectors
   0.0000754443974   0.4989624146995   13.57746     1.6     1.9

 Iteration  10 using   10 trial vectors
   0.0000538864908   0.4989624954063   13.57747     1.6     1.9

 Iteration  11 using   11 trial vectors
   0.0000542758467   0.4989622081280   13.57746     1.6     1.9

 Iteration  12 using   12 trial vectors
   0.0000320169236   0.4989622028829   13.57746     1.6     1.9

 Iteration  13 using   13 trial vectors
   0.0000128395114   0.4989623498828   13.57746     1.6     1.9

 Iteration  14 using   14 trial vectors
   0.0000048068564   0.4989623438410   13.57746     1.6     1.9

 Iteration  15 using   15 trial vectors
   0.0000018241321   0.4989623392893   13.57746     1.6     1.9

 Iteration  16 using   16 trial vectors
   0.0000007956469   0.4989623418161   13.57746     1.6     1.9
 --------------------------------------------------------------
 Iterations converged
 largest EOMCCSD amplitudes: R1 and R2

 Singles contributions
    26b3u (alpha)       -0.9528222254

 Doubles contributions

 Task  times  cpu:      381.8s     wall:      421.2s
 
 
                                NWChem Input Module
                                -------------------
 
 
 Summary of allocated global arrays
-----------------------------------
  No active global arrays



                         GA Statistics for process    0
                         ------------------------------

       create   destroy   get      put      acc     scatter   gather  read&inc
calls: 1.96e+04 1.96e+04 8.39e+05 1.97e+04 1.50e+05    0        0     4.39e+06 
number of processes/call 1.95e+00 1.95e+00 1.57e+00 0.00e+00 0.00e+00
bytes total:             4.39e+10 6.42e+08 1.80e+09 0.00e+00 0.00e+00 3.52e+07
bytes remote:            3.95e+10 6.17e+08 1.57e+09 0.00e+00 0.00e+00 0.00e+00
Max memory consumed for GA by this process: 72385224 bytes
 
MA_summarize_allocated_blocks: starting scan ...
MA_summarize_allocated_blocks: scan completed: 0 heap blocks, 0 stack blocks
MA usage statistics:

	allocation statistics:
					      heap	     stack
					      ----	     -----
	current number of blocks	         0	         0
	maximum number of blocks	        17	        35
	current total bytes		         0	         0
	maximum total bytes		     80152	 206182680
	maximum total K-bytes		        81	    206183
	maximum total M-bytes		         1	       207
 
 
                                     CITATION
                                     --------
                Please cite the following reference when publishing
                           results obtained with NWChem:
 
                 M. Valiev, E.J. Bylaska, N. Govind, K. Kowalski,
              T.P. Straatsma, H.J.J. van Dam, D. Wang, J. Nieplocha,
                        E. Apra, T.L. Windus, W.A. de Jong
                 "NWChem: a comprehensive and scalable open-source
                  solution for large scale molecular simulations"
                      Comput. Phys. Commun. 181, 1477 (2010)
                           doi:10.1016/j.cpc.2010.04.018
 
                                      AUTHORS
                                      -------
          E. Apra, E. J. Bylaska, W. A. de Jong, N. Govind, K. Kowalski,
       T. P. Straatsma, M. Valiev, H. J. J. van Dam, D. Wang, T. L. Windus,
        J. Hammond, J. Autschbach, K. Bhaskaran-Nair, J. Brabec, K. Lopata,
       S. A. Fischer, S. Krishnamoorthy, W. Ma, M. Klemm, O. Villa, Y. Chen,
    V. Anisimov, F. Aquino, S. Hirata, M. T. Hackler, T. Risthaus, M. Malagoli,
       A. Marenich, A. Otero-de-la-Roza, J. Mullin, P. Nichols, R. Peverati,
     J. Pittner, Y. Zhao, P.-D. Fan, A. Fonari, M. Williamson, R. J. Harrison,
       J. R. Rehr, M. Dupuis, D. Silverstein, D. M. A. Smith, J. Nieplocha,
        V. Tipparaju, M. Krishnan, B. E. Van Kuiken, A. Vazquez-Mayagoitia,
        L. Jensen, M. Swart, Q. Wu, T. Van Voorhis, A. A. Auer, M. Nooijen,
      L. D. Crosby, E. Brown, G. Cisneros, G. I. Fann, H. Fruchtl, J. Garza,
        K. Hirao, R. A. Kendall, J. A. Nichols, K. Tsemekhman, K. Wolinski,
     J. Anchell, D. E. Bernholdt, P. Borowski, T. Clark, D. Clerc, H. Dachsel,
   M. J. O. Deegan, K. Dyall, D. Elwood, E. Glendening, M. Gutowski, A. C. Hess,
         J. Jaffe, B. G. Johnson, J. Ju, R. Kobayashi, R. Kutteh, Z. Lin,
   R. Littlefield, X. Long, B. Meng, T. Nakajima, S. Niu, L. Pollack, M. Rosing,
   K. Glaesemann, G. Sandrone, M. Stave, H. Taylor, G. Thomas, J. H. van Lenthe,
                               A. T. Wong, Z. Zhang.

 Total times  cpu:      384.4s     wall:      438.9s
