 argument  1 = tce_h2o_ccsd.nw
  NWChem w/ OpenMP: maximum threads =  4
 


============================== echo of input deck ==============================
start tce_h2o

echo

geometry units bohr
H    0.000000000000000   1.579252144093028   2.174611055780858
O    0.000000000000000   0.000000000000000   0.000000000000000
H    0.000000000000000   1.579252144093028  -2.174611055780858
end

basis
H library sto-3g
O library sto-3g
end

scf
thresh 1.0e-10
tol2e 1.0e-10
singlet
rhf
end

tce
ccsd
end

task tce energy



================================================================================


                                         
                                         
 
 
              Northwest Computational Chemistry Package (NWChem) 6.6
              ------------------------------------------------------
 
 
                    Environmental Molecular Sciences Laboratory
                       Pacific Northwest National Laboratory
                                Richland, WA 99352
 
                              Copyright (c) 1994-2015
                       Pacific Northwest National Laboratory
                            Battelle Memorial Institute
 
             NWChem is an open-source computational chemistry package
                        distributed under the terms of the
                      Educational Community License (ECL) 2.0
             A copy of the license is included with this distribution
                              in the LICENSE.TXT file
 
                                  ACKNOWLEDGMENT
                                  --------------

            This software and its documentation were developed at the
            EMSL at Pacific Northwest National Laboratory, a multiprogram
            national laboratory, operated for the U.S. Department of Energy
            by Battelle under Contract Number DE-AC05-76RL01830. Support
            for this work was provided by the Department of Energy Office
            of Biological and Environmental Research, Office of Basic
            Energy Sciences, and the Office of Advanced Scientific Computing.


           Job information
           ---------------

    hostname        = debian
    program         = /opt/libraries/nwchem-devel/bin/LINUX64/nwchem_orig
    date            = Thu Mar 30 16:05:55 2017

    compiled        = Tue_Mar_28_14:10:50_2017
    source          = /opt/libraries/nwchem-devel
    nwchem branch   = Development
    nwchem revision = 29169
    ga revision     = 10752
    input           = tce_h2o_ccsd.nw
    prefix          = tce_h2o.
    data base       = ./tce_h2o.db
    status          = startup
    nproc           =        1
    time left       =     -1s



           Memory information
           ------------------

    heap     =   13107196 doubles =    100.0 Mbytes
    stack    =   13107201 doubles =    100.0 Mbytes
    global   =   26214400 doubles =    200.0 Mbytes (distinct from heap & stack)
    total    =   52428797 doubles =    400.0 Mbytes
    verify   = yes
    hardfail = no 


           Directory information
           ---------------------
 
  0 permanent = .
  0 scratch   = .
 
 
 
 
                                NWChem Input Module
                                -------------------
 
 
 C2V symmetry detected

          ------
          auto-z
          ------
     1 autoz failed with cvr_scaling = 1.2 changing to 1.3
     2 autoz failed with cvr_scaling = 1.3 changing to 1.4
 
 
                             Geometry "geometry" -> ""
                             -------------------------
 
 Output coordinates in a.u. (scale by  1.000000000 to convert to a.u.)
 
  No.       Tag          Charge          X              Y              Z
 ---- ---------------- ---------- -------------- -------------- --------------
    1 H                    1.0000     2.17461106     0.00000000     1.26340172
    2 O                    8.0000     0.00000000     0.00000000    -0.31585043
    3 H                    1.0000    -2.17461106     0.00000000     1.26340172
 
      Atomic Mass 
      ----------- 
 
      H                  1.007825
      O                 15.994910
 

 Effective nuclear repulsion energy (a.u.)       6.1832850030

            Nuclear Dipole moment (a.u.) 
            ----------------------------
        X                 Y               Z
 ---------------- ---------------- ----------------
     0.0000000000     0.0000000000     0.0000000000
 
      Symmetry information
      --------------------
 
 Group name             C2v       
 Group number             16
 Group order               4
 No. of unique centers     2
 
      Symmetry unique atoms
 
     1    2
 


                                Z-matrix (autoz)
                                -------- 

 Units are Angstrom for bonds and degrees for angles
 
      Type          Name      I     J     K     L     M      Value
      ----------- --------  ----- ----- ----- ----- ----- ----------
    1 Stretch                  1     2                       1.42219
    2 Stretch                  2     3                       1.42219
    3 Bend                     1     2     3               108.02398
 
 
            XYZ format geometry
            -------------------
     3
 geometry
 H                     1.15075470     0.00000000     0.66856344
 O                     0.00000000     0.00000000    -0.16714086
 H                    -1.15075470     0.00000000     0.66856344
 
                      Basis "ao basis" -> "" (cartesian)
                      -----
  H (Hydrogen)
  ------------
            Exponent  Coefficients 
       -------------- ---------------------------------------------------------
  1 S  3.42525091E+00  0.154329
  1 S  6.23913730E-01  0.535328
  1 S  1.68855400E-01  0.444635
 
  O (Oxygen)
  ----------
            Exponent  Coefficients 
       -------------- ---------------------------------------------------------
  1 S  1.30709320E+02  0.154329
  1 S  2.38088610E+01  0.535328
  1 S  6.44360830E+00  0.444635
 
  2 S  5.03315130E+00 -0.099967
  2 S  1.16959610E+00  0.399513
  2 S  3.80389000E-01  0.700115
 
  3 P  5.03315130E+00  0.155916
  3 P  1.16959610E+00  0.607684
  3 P  3.80389000E-01  0.391957
 


 Summary of "ao basis" -> "" (cartesian)
 ------------------------------------------------------------------------------
       Tag                 Description            Shells   Functions and Types
 ---------------- ------------------------------  ------  ---------------------
 H                           sto-3g                  1        1   1s
 O                           sto-3g                  3        5   2s1p


                                 NWChem SCF Module
                                 -----------------
 
 

  ao basis        = "ao basis"
  functions       =     7
  atoms           =     3
  closed shells   =     5
  open shells     =     0
  charge          =   0.00
  wavefunction    = RHF 
  input vectors   = atomic
  output vectors  = ./tce_h2o.movecs
  use symmetry    = T
  symmetry adapt  = T


 Summary of "ao basis" -> "ao basis" (cartesian)
 ------------------------------------------------------------------------------
       Tag                 Description            Shells   Functions and Types
 ---------------- ------------------------------  ------  ---------------------
 H                           sto-3g                  1        1   1s
 O                           sto-3g                  3        5   2s1p


      Symmetry analysis of basis
      --------------------------
 
        a1          4
        a2          0
        b1          2
        b2          1
 

 Forming initial guess at       0.0s

 
      Superposition of Atomic Density Guess
      -------------------------------------
 
 Sum of atomic energies:         -74.71095592
 
      Non-variational initial energy
      ------------------------------

 Total energy =     -73.968701
 1-e energy   =    -116.142712
 2-e energy   =      35.990726
 HOMO         =      -0.203873
 LUMO         =       0.121305
 
 
      Symmetry analysis of molecular orbitals - initial
      -------------------------------------------------
 
  Numbering of irreducible representations: 
 
     1 a1          2 a2          3 b1          4 b2      
 
  Orbital symmetries:
 
     1 a1          2 a1          3 b1          4 a1          5 b2      
     6 a1          7 b1      
 

 Starting SCF solution at       0.1s



 ----------------------------------------------
         Quadratically convergent ROHF

 Convergence threshold     :          1.000E-10
 Maximum no. of iterations :           30
 Final Fock-matrix accuracy:          1.000E-10
 ----------------------------------------------


 #quartets = 7.900D+01 #integrals = 1.640D+02 #direct =  0.0% #cached =100.0%


 Integral file          = ./tce_h2o.aoints.0
 Record size in doubles =  65536        No. of integs per rec  =  43688
 Max. records in memory =      2        Max. records in file   = 113737
 No. of bits per label  =      8        No. of bits per value  =     64


              iter       energy          gnorm     gmax       time
             ----- ------------------- --------- --------- --------
                 1      -74.6534332946  9.18D-01  7.03D-01      0.2
                 2      -74.7526200114  1.19D-01  9.98D-02      0.2
                 3      -74.7538434192  7.22D-03  4.95D-03      0.2
                 4      -74.7538597962  9.64D-06  9.31D-06      0.2
                 5      -74.7538597963  8.82D-12  6.86D-12      0.3


       Final RHF  results 
       ------------------ 

         Total SCF energy =    -74.753859796253
      One-electron energy =   -116.565801436107
      Two-electron energy =     35.628656636837
 Nuclear repulsion energy =      6.183285003016

        Time for solution =      0.2s


 
       Symmetry analysis of molecular orbitals - final
       -----------------------------------------------
 
  Numbering of irreducible representations: 
 
     1 a1          2 a2          3 b1          4 b2      
 
  Orbital symmetries:
 
     1 a1          2 a1          3 b1          4 b2          5 a1      
     6 a1          7 b1      
 
             Final eigenvalues
             -----------------

              1      
    1  -20.3003
    2   -1.1473
    3   -0.4319
    4   -0.3952
    5   -0.3795
    6    0.2703
    7    0.3553
 
                       ROHF Final Molecular Orbital Analysis
                       -------------------------------------
 
 Vector    2  Occ=2.000000D+00  E=-1.147272D+00  Symmetry=a1
              MO Center= -2.3D-17, -9.0D-24, -1.0D-01, r^2= 5.2D-01
   Bfn.  Coefficient  Atom+Function         Bfn.  Coefficient  Atom+Function  
  ----- ------------  ---------------      ----- ------------  ---------------
     3      0.970532  2 O  s                  2     -0.252287  2 O  s          
 
 Vector    3  Occ=2.000000D+00  E=-4.319229D-01  Symmetry=b1
              MO Center= -1.2D-15, -2.4D-33,  2.4D-01, r^2= 1.3D+00
   Bfn.  Coefficient  Atom+Function         Bfn.  Coefficient  Atom+Function  
  ----- ------------  ---------------      ----- ------------  ---------------
     4      0.621183  2 O  px                 1      0.467118  1 H  s          
     7     -0.467118  3 H  s          
 
 Vector    4  Occ=2.000000D+00  E=-3.952463D-01  Symmetry=b2
              MO Center=  1.8D-36,  5.4D-20, -1.7D-01, r^2= 4.2D-01
   Bfn.  Coefficient  Atom+Function         Bfn.  Coefficient  Atom+Function  
  ----- ------------  ---------------      ----- ------------  ---------------
     5      1.000000  2 O  py         
 
 Vector    5  Occ=2.000000D+00  E=-3.795036D-01  Symmetry=a1
              MO Center= -1.2D-15,  4.3D-24,  8.0D-02, r^2= 1.1D+00
   Bfn.  Coefficient  Atom+Function         Bfn.  Coefficient  Atom+Function  
  ----- ------------  ---------------      ----- ------------  ---------------
     6      0.720453  2 O  pz                 1      0.403942  1 H  s          
     7      0.403942  3 H  s                  3     -0.313985  2 O  s          
 
 Vector    6  Occ=0.000000D+00  E= 2.703154D-01  Symmetry=a1
              MO Center=  1.6D-14, -3.8D-23,  3.8D-01, r^2= 1.5D+00
   Bfn.  Coefficient  Atom+Function         Bfn.  Coefficient  Atom+Function  
  ----- ------------  ---------------      ----- ------------  ---------------
     6      0.719032  2 O  pz                 1     -0.603568  1 H  s          
     7     -0.603568  3 H  s                  3      0.373193  2 O  s          
 
 Vector    7  Occ=0.000000D+00  E= 3.553008D-01  Symmetry=b1
              MO Center= -1.4D-14, -3.4D-34,  2.7D-01, r^2= 1.4D+00
   Bfn.  Coefficient  Atom+Function         Bfn.  Coefficient  Atom+Function  
  ----- ------------  ---------------      ----- ------------  ---------------
     4      0.830083  2 O  px                 1     -0.600370  1 H  s          
     7      0.600370  3 H  s          
 

 center of mass
 --------------
 x =   0.00000000 y =   0.00000000 z =  -0.13910858

 moments of inertia (a.u.)
 ------------------
           4.464498254644           0.000000000000           0.000000000000
           0.000000000000          13.996372547760           0.000000000000
           0.000000000000           0.000000000000           9.531874293116
 
  Mulliken analysis of the total density
  --------------------------------------

    Atom       Charge   Shell Charges
 -----------   ------   -------------------------------------------------------
    1 H    1     0.94   0.94
    2 O    8     8.11   2.00  1.94  4.17
    3 H    1     0.94   0.94
 
       Multipole analysis of the density wrt the origin
       ------------------------------------------------
 
     L   x y z        total         open         nuclear
     -   - - -        -----         ----         -------
     0   0 0 0     -0.000000      0.000000     10.000000
 
     1   1 0 0      0.000000      0.000000      0.000000
     1   0 1 0     -0.000000      0.000000      0.000000
     1   0 0 1      0.432069      0.000000      0.000000
 
     2   2 0 0     -3.062616      0.000000      9.457866
     2   1 1 0      0.000000      0.000000      0.000000
     2   1 0 1      0.000000      0.000000      0.000000
     2   0 2 0     -4.733292      0.000000      0.000000
     2   0 1 1     -0.000000      0.000000      0.000000
     2   0 0 2     -4.007923      0.000000      3.990460
 

 Parallel integral file used       1 records with       0 large values

                   NWChem Extensible Many-Electron Theory Module
                   ---------------------------------------------
 
              ======================================================
                   This portion of the program was automatically
                  generated by a Tensor Contraction Engine (TCE).
                  The development of this portion of the program
                 and TCE was supported by US Department of Energy,
                Office of Science, Office of Basic Energy Science.
                      TCE is a product of Battelle and PNNL.
              Please cite: S.Hirata, J.Phys.Chem.A 107, 9887 (2003).
              ======================================================
 
            General Information
            -------------------
      Number of processors :     1
         Wavefunction type : Restricted Hartree-Fock
          No. of electrons :    10
           Alpha electrons :     5
            Beta electrons :     5
           No. of orbitals :    14
            Alpha orbitals :     7
             Beta orbitals :     7
        Alpha frozen cores :     0
         Beta frozen cores :     0
     Alpha frozen virtuals :     0
      Beta frozen virtuals :     0
         Spin multiplicity : singlet 
    Number of AO functions :     7
       Number of AO shells :     5
        Use of symmetry is : on 
      Symmetry adaption is : on 
         Schwarz screening : 0.10D-09
 
          Correlation Information
          -----------------------
          Calculation type : Coupled-cluster singles & doubles                           
   Perturbative correction : none                                                        
            Max iterations :      100
        Residual threshold : 0.10D-06
     T(0) DIIS level shift : 0.00D+00
     L(0) DIIS level shift : 0.00D+00
     T(1) DIIS level shift : 0.00D+00
     L(1) DIIS level shift : 0.00D+00
     T(R) DIIS level shift : 0.00D+00
     T(I) DIIS level shift : 0.00D+00
   CC-T/L Amplitude update :  5-th order DIIS
                I/O scheme : Global Array Library
        L-threshold :  0.10D-06
        EOM-threshold :  0.10D-06
 no EOMCCSD initial starts read in
 TCE RESTART OPTIONS
 READ_INT:   F
 WRITE_INT:  F
 READ_TA:    F
 WRITE_TA:   F
 READ_XA:    F
 WRITE_XA:   F
 READ_IN3:   F
 WRITE_IN3:  F
 SLICE:      F
 D4D5:       F
 
            Memory Information
            ------------------
          Available GA space size is      26214351 doubles
          Available MA space size is      26213660 doubles
 
 Maximum block size        32 doubles

 tile_dim =      3

 Block   Spin    Irrep     Size     Offset   Alpha
 -------------------------------------------------
   1    alpha     a1     3 doubles       0       1
   2    alpha     b1     1 doubles       3       2
   3    alpha     b2     1 doubles       4       3
   4    beta      a1     3 doubles       5       1
   5    beta      b1     1 doubles       8       2
   6    beta      b2     1 doubles       9       3
   7    alpha     a1     1 doubles      10       7
   8    alpha     b1     1 doubles      11       8
   9    beta      a1     1 doubles      12       7
  10    beta      b1     1 doubles      13       8

 Global array virtual files algorithm will be used

 Parallel file system coherency ......... OK

 #quartets = 1.200D+02 #integrals = 2.560D+02 #direct =  0.0% #cached =100.0%


 Integral file          = ./tce_h2o.aoints.0
 Record size in doubles =  65536        No. of integs per rec  =  43688
 Max. records in memory =      2        Max. records in file   = 113737
 No. of bits per label  =      8        No. of bits per value  =     64

 
 Fock matrix recomputed
 1-e file size   =               21
 1-e file name   = ./tce_h2o.f1
 Cpu & wall time / sec            0.1            0.0
 
 tce_ao2e: fast2e=1
 half-transformed integrals in memory
 
 2-e (intermediate) file size =            5439
 2-e (intermediate) file name = ./tce_h2o.v2i
 Cpu & wall time / sec            0.0            0.0
 
 tce_mo2e: fast2e=1
 2-e integrals stored in memory
 
 2-e file size   =             1150
 2-e file name   = ./tce_h2o.v2
 Cpu & wall time / sec            0.0            0.0
 T1-number-of-tasks                     2
 
 t1 file size   =                4
 t1 file name   = ./tce_h2o.t1
 t1 file handle =       -999
 T2-number-of-boxes                    17
 
 t2 file size   =               59
 t2 file name   = ./tce_h2o.t2
 t2 file handle =       -996

 CCSD iterations
 -----------------------------------------------------------------
 Iter          Residuum       Correlation     Cpu    Wall    V2*C2
 -----------------------------------------------------------------
    1   0.1323426391354  -0.0949448414960     0.2     0.1     0.0
    2   0.0653882689372  -0.1217829956823     0.2     0.1     0.0
    3   0.0343877923419  -0.1327502284929     0.2     0.0     0.0
    4   0.0188961859674  -0.1383542077117     0.2     0.1     0.0
    5   0.0110211774709  -0.1412604631559     0.2     0.0     0.0
 MICROCYCLE DIIS UPDATE:                     5                     5
    6   0.0012515612255  -0.1447935876837     0.2     0.1     0.0
    7   0.0006672379567  -0.1447447330694     0.2     0.0     0.0
    8   0.0004297085202  -0.1447585908882     0.2     0.1     0.0
    9   0.0002861712653  -0.1447692790681     0.2     0.0     0.0
   10   0.0001940603270  -0.1447758778439     0.2     0.0     0.0
 MICROCYCLE DIIS UPDATE:                    10                     5
   11   0.0000201275964  -0.1447874485619     0.2     0.0     0.0
   12   0.0000083719552  -0.1447903435192     0.2     0.0     0.0
   13   0.0000052699380  -0.1447912084363     0.2     0.0     0.0
   14   0.0000034318688  -0.1447916981113     0.2     0.0     0.0
   15   0.0000022798763  -0.1447919845844     0.2     0.1     0.0
 MICROCYCLE DIIS UPDATE:                    15                     5
   16   0.0000003220725  -0.1447924781101     0.2     0.1     0.0
   17   0.0000001692902  -0.1447924651382     0.2     0.1     0.0
   18   0.0000001137386  -0.1447924678083     0.2     0.0     0.0
   19   0.0000000780418  -0.1447924703368     0.2     0.1     0.0
 -----------------------------------------------------------------
 Iterations converged
 CCSD correlation energy / hartree =        -0.144792470336780
 CCSD total energy / hartree       =       -74.898652266590219

 Singles contributions

 Doubles contributions
     6a1  (alpha)     6a1  (beta ) ---     5a1  (alpha)     5a1  (beta )       -0.1982851498
     6a1  (alpha)     6a1  (beta ) ---     3b1  (alpha)     3b1  (beta )       -0.1007924987
     6a1  (alpha)     7b1  (beta ) ---     5a1  (alpha)     3b1  (beta )       -0.1402039639
     6a1  (alpha)     7b1  (beta ) ---     3b1  (alpha)     5a1  (beta )       -0.1304220959
     7b1  (alpha)     6a1  (beta ) ---     5a1  (alpha)     3b1  (beta )       -0.1304220959
     7b1  (alpha)     6a1  (beta ) ---     3b1  (alpha)     5a1  (beta )       -0.1402039639
     7b1  (alpha)     7b1  (beta ) ---     3b1  (alpha)     3b1  (beta )       -0.1711473069

 Parallel integral file used       1 records with       0 large values


 Task  times  cpu:        3.9s     wall:        1.1s
 
 
                                NWChem Input Module
                                -------------------
 
 
 Summary of allocated global arrays
-----------------------------------
  No active global arrays



                         GA Statistics for process    0
                         ------------------------------

       create   destroy   get      put      acc     scatter   gather  read&inc
calls: 2392     2392     5.63e+04 4207     2.83e+04    0        0     3.73e+04 
number of processes/call 1.00e+00 1.00e+00 1.00e+00 0.00e+00 0.00e+00
bytes total:             2.10e+06 2.41e+05 1.26e+06 0.00e+00 0.00e+00 2.99e+05
bytes remote:            0.00e+00 0.00e+00 0.00e+00 0.00e+00 0.00e+00 0.00e+00
Max memory consumed for GA by this process: 53280 bytes
 
 
 
                                     CITATION
                                     --------
                Please cite the following reference when publishing
                           results obtained with NWChem:
 
                 M. Valiev, E.J. Bylaska, N. Govind, K. Kowalski,
              T.P. Straatsma, H.J.J. van Dam, D. Wang, J. Nieplocha,
                        E. Apra, T.L. Windus, W.A. de Jong
                 "NWChem: a comprehensive and scalable open-source
                  solution for large scale molecular simulations"
                      Comput. Phys. Commun. 181, 1477 (2010)
                           doi:10.1016/j.cpc.2010.04.018
 
                                      AUTHORS
                                      -------
          E. Apra, E. J. Bylaska, W. A. de Jong, N. Govind, K. Kowalski,
       T. P. Straatsma, M. Valiev, H. J. J. van Dam, D. Wang, T. L. Windus,
        J. Hammond, J. Autschbach, K. Bhaskaran-Nair, J. Brabec, K. Lopata,
       S. A. Fischer, S. Krishnamoorthy, W. Ma, M. Klemm, O. Villa, Y. Chen,
    V. Anisimov, F. Aquino, S. Hirata, M. T. Hackler, V. Konjkov, T. Risthaus,
       M. Malagoli, A. Marenich, A. Otero-de-la-Roza, J. Mullin, P. Nichols,
      R. Peverati, J. Pittner, Y. Zhao, P.-D. Fan, A. Fonari, M. Williamson,
      R. J. Harrison, J. R. Rehr, M. Dupuis, D. Silverstein, D. M. A. Smith,
            J. Nieplocha, V. Tipparaju, M. Krishnan, B. E. Van Kuiken,
        A. Vazquez-Mayagoitia, L. Jensen, M. Swart, Q. Wu, T. Van Voorhis,
     A. A. Auer, M. Nooijen, L. D. Crosby, E. Brown, G. Cisneros, G. I. Fann,
   H. Fruchtl, J. Garza, K. Hirao, R. A. Kendall, J. A. Nichols, K. Tsemekhman,
    K. Wolinski, J. Anchell, D. E. Bernholdt, P. Borowski, T. Clark, D. Clerc,
   H. Dachsel, M. J. O. Deegan, K. Dyall, D. Elwood, E. Glendening, M. Gutowski,
   A. C. Hess, J. Jaffe, B. G. Johnson, J. Ju, R. Kobayashi, R. Kutteh, Z. Lin,
   R. Littlefield, X. Long, B. Meng, T. Nakajima, S. Niu, L. Pollack, M. Rosing,
   K. Glaesemann, G. Sandrone, M. Stave, H. Taylor, G. Thomas, J. H. van Lenthe,
                               A. T. Wong, Z. Zhang.

 Total times  cpu:        3.9s     wall:        1.2s
MA_summarize_allocated_blocks: starting scan ...
MA_summarize_allocated_blocks: scan completed: 0 heap blocks, 0 stack blocks
MA usage statistics:

	allocation statistics:
					      heap	     stack
					      ----	     -----
	current number of blocks	         0	         0
	maximum number of blocks	        18	        27
	current total bytes		         0	         0
	maximum total bytes		   1054152	  22509224
	maximum total K-bytes		      1055	     22510
	maximum total M-bytes		         2	        23
