 argument  1 = tce_h2o_ipccsd.nw
  NWChem w/ OpenMP: maximum threads =  4
 


============================== echo of input deck ==============================
#A1: 10.27734 eV
#A2: no solution for this particular case
#B1: 12.62030 eV
#B2:   7.23704 eV


start  tce_ipccsd_h2o

title "tce_ipccsd_h2o"

echo

geometry units bohr
H    0.000000000000000   1.579252144093028   2.174611055780858
O    0.000000000000000   0.000000000000000   0.000000000000000
H    0.000000000000000   1.579252144093028  -2.174611055780858
end

basis
H library sto-3g
O library sto-3g
end

scf
thresh 1.0e-10
tol2e 1.0e-10
singlet
rhf
end

tce
freeze atomic
#eaccsd
ipccsd
2eorb
2emet 13
tilesize 30
attilesize 40
thresh 1.0d-6
maxiter 100
nroots 1
end

set tce:maxeorb 0.6

task tce energy

####

================================================================================


                                         
                                         
 
 
              Northwest Computational Chemistry Package (NWChem) 6.6
              ------------------------------------------------------
 
 
                    Environmental Molecular Sciences Laboratory
                       Pacific Northwest National Laboratory
                                Richland, WA 99352
 
                              Copyright (c) 1994-2015
                       Pacific Northwest National Laboratory
                            Battelle Memorial Institute
 
             NWChem is an open-source computational chemistry package
                        distributed under the terms of the
                      Educational Community License (ECL) 2.0
             A copy of the license is included with this distribution
                              in the LICENSE.TXT file
 
                                  ACKNOWLEDGMENT
                                  --------------

            This software and its documentation were developed at the
            EMSL at Pacific Northwest National Laboratory, a multiprogram
            national laboratory, operated for the U.S. Department of Energy
            by Battelle under Contract Number DE-AC05-76RL01830. Support
            for this work was provided by the Department of Energy Office
            of Biological and Environmental Research, Office of Basic
            Energy Sciences, and the Office of Advanced Scientific Computing.


           Job information
           ---------------

    hostname        = debian
    program         = /opt/libraries/nwchem-devel/bin/LINUX64/nwchem_orig
    date            = Thu Mar 30 16:05:27 2017

    compiled        = Tue_Mar_28_14:10:50_2017
    source          = /opt/libraries/nwchem-devel
    nwchem branch   = Development
    nwchem revision = 29169
    ga revision     = 10752
    input           = tce_h2o_ipccsd.nw
    prefix          = tce_ipccsd_h2o.
    data base       = ./tce_ipccsd_h2o.db
    status          = startup
    nproc           =        1
    time left       =     -1s



           Memory information
           ------------------

    heap     =   13107196 doubles =    100.0 Mbytes
    stack    =   13107201 doubles =    100.0 Mbytes
    global   =   26214400 doubles =    200.0 Mbytes (distinct from heap & stack)
    total    =   52428797 doubles =    400.0 Mbytes
    verify   = yes
    hardfail = no 


           Directory information
           ---------------------
 
  0 permanent = .
  0 scratch   = .
 
 
 
 
                                NWChem Input Module
                                -------------------
 
 
                                  tce_ipccsd_h2o
                                  --------------
 C2V symmetry detected

          ------
          auto-z
          ------
     1 autoz failed with cvr_scaling = 1.2 changing to 1.3
     2 autoz failed with cvr_scaling = 1.3 changing to 1.4
 
 
                             Geometry "geometry" -> ""
                             -------------------------
 
 Output coordinates in a.u. (scale by  1.000000000 to convert to a.u.)
 
  No.       Tag          Charge          X              Y              Z
 ---- ---------------- ---------- -------------- -------------- --------------
    1 H                    1.0000     2.17461106     0.00000000     1.26340172
    2 O                    8.0000     0.00000000     0.00000000    -0.31585043
    3 H                    1.0000    -2.17461106     0.00000000     1.26340172
 
      Atomic Mass 
      ----------- 
 
      H                  1.007825
      O                 15.994910
 

 Effective nuclear repulsion energy (a.u.)       6.1832850030

            Nuclear Dipole moment (a.u.) 
            ----------------------------
        X                 Y               Z
 ---------------- ---------------- ----------------
     0.0000000000     0.0000000000     0.0000000000
 
      Symmetry information
      --------------------
 
 Group name             C2v       
 Group number             16
 Group order               4
 No. of unique centers     2
 
      Symmetry unique atoms
 
     1    2
 


                                Z-matrix (autoz)
                                -------- 

 Units are Angstrom for bonds and degrees for angles
 
      Type          Name      I     J     K     L     M      Value
      ----------- --------  ----- ----- ----- ----- ----- ----------
    1 Stretch                  1     2                       1.42219
    2 Stretch                  2     3                       1.42219
    3 Bend                     1     2     3               108.02398
 
 
            XYZ format geometry
            -------------------
     3
 geometry
 H                     1.15075470     0.00000000     0.66856344
 O                     0.00000000     0.00000000    -0.16714086
 H                    -1.15075470     0.00000000     0.66856344
 
                      Basis "ao basis" -> "" (cartesian)
                      -----
  H (Hydrogen)
  ------------
            Exponent  Coefficients 
       -------------- ---------------------------------------------------------
  1 S  3.42525091E+00  0.154329
  1 S  6.23913730E-01  0.535328
  1 S  1.68855400E-01  0.444635
 
  O (Oxygen)
  ----------
            Exponent  Coefficients 
       -------------- ---------------------------------------------------------
  1 S  1.30709320E+02  0.154329
  1 S  2.38088610E+01  0.535328
  1 S  6.44360830E+00  0.444635
 
  2 S  5.03315130E+00 -0.099967
  2 S  1.16959610E+00  0.399513
  2 S  3.80389000E-01  0.700115
 
  3 P  5.03315130E+00  0.155916
  3 P  1.16959610E+00  0.607684
  3 P  3.80389000E-01  0.391957
 


 Summary of "ao basis" -> "" (cartesian)
 ------------------------------------------------------------------------------
       Tag                 Description            Shells   Functions and Types
 ---------------- ------------------------------  ------  ---------------------
 H                           sto-3g                  1        1   1s
 O                           sto-3g                  3        5   2s1p


                                 NWChem SCF Module
                                 -----------------
 
 
                                  tce_ipccsd_h2o
 
 

  ao basis        = "ao basis"
  functions       =     7
  atoms           =     3
  closed shells   =     5
  open shells     =     0
  charge          =   0.00
  wavefunction    = RHF 
  input vectors   = atomic
  output vectors  = ./tce_ipccsd_h2o.movecs
  use symmetry    = T
  symmetry adapt  = T


 Summary of "ao basis" -> "ao basis" (cartesian)
 ------------------------------------------------------------------------------
       Tag                 Description            Shells   Functions and Types
 ---------------- ------------------------------  ------  ---------------------
 H                           sto-3g                  1        1   1s
 O                           sto-3g                  3        5   2s1p


      Symmetry analysis of basis
      --------------------------
 
        a1          4
        a2          0
        b1          2
        b2          1
 

 Forming initial guess at       0.1s

 
      Superposition of Atomic Density Guess
      -------------------------------------
 
 Sum of atomic energies:         -74.71095592
 
      Non-variational initial energy
      ------------------------------

 Total energy =     -73.968701
 1-e energy   =    -116.142712
 2-e energy   =      35.990726
 HOMO         =      -0.203873
 LUMO         =       0.121305
 
 
      Symmetry analysis of molecular orbitals - initial
      -------------------------------------------------
 
  Numbering of irreducible representations: 
 
     1 a1          2 a2          3 b1          4 b2      
 
  Orbital symmetries:
 
     1 a1          2 a1          3 b1          4 a1          5 b2      
     6 a1          7 b1      
 

 Starting SCF solution at       0.1s



 ----------------------------------------------
         Quadratically convergent ROHF

 Convergence threshold     :          1.000E-10
 Maximum no. of iterations :           30
 Final Fock-matrix accuracy:          1.000E-10
 ----------------------------------------------


 #quartets = 7.900D+01 #integrals = 1.640D+02 #direct =  0.0% #cached =100.0%


 Integral file          = ./tce_ipccsd_h2o.aoints.0
 Record size in doubles =  65536        No. of integs per rec  =  43688
 Max. records in memory =      2        Max. records in file   = 113737
 No. of bits per label  =      8        No. of bits per value  =     64


              iter       energy          gnorm     gmax       time
             ----- ------------------- --------- --------- --------
                 1      -74.6534332946  9.18D-01  7.03D-01      0.4
                 2      -74.7526200114  1.19D-01  9.98D-02      0.4
                 3      -74.7538434192  7.22D-03  4.95D-03      0.5
                 4      -74.7538597962  9.64D-06  9.31D-06      0.5
                 5      -74.7538597963  8.82D-12  6.86D-12      0.6


       Final RHF  results 
       ------------------ 

         Total SCF energy =    -74.753859796253
      One-electron energy =   -116.565801436107
      Two-electron energy =     35.628656636837
 Nuclear repulsion energy =      6.183285003016

        Time for solution =      0.3s


 
       Symmetry analysis of molecular orbitals - final
       -----------------------------------------------
 
  Numbering of irreducible representations: 
 
     1 a1          2 a2          3 b1          4 b2      
 
  Orbital symmetries:
 
     1 a1          2 a1          3 b1          4 b2          5 a1      
     6 a1          7 b1      
 
             Final eigenvalues
             -----------------

              1      
    1  -20.3003
    2   -1.1473
    3   -0.4319
    4   -0.3952
    5   -0.3795
    6    0.2703
    7    0.3553
 
                       ROHF Final Molecular Orbital Analysis
                       -------------------------------------
 
 Vector    2  Occ=2.000000D+00  E=-1.147272D+00  Symmetry=a1
              MO Center= -2.3D-17, -9.0D-24, -1.0D-01, r^2= 5.2D-01
   Bfn.  Coefficient  Atom+Function         Bfn.  Coefficient  Atom+Function  
  ----- ------------  ---------------      ----- ------------  ---------------
     3      0.970532  2 O  s                  2     -0.252287  2 O  s          
 
 Vector    3  Occ=2.000000D+00  E=-4.319229D-01  Symmetry=b1
              MO Center= -1.2D-15, -2.4D-33,  2.4D-01, r^2= 1.3D+00
   Bfn.  Coefficient  Atom+Function         Bfn.  Coefficient  Atom+Function  
  ----- ------------  ---------------      ----- ------------  ---------------
     4      0.621183  2 O  px                 1      0.467118  1 H  s          
     7     -0.467118  3 H  s          
 
 Vector    4  Occ=2.000000D+00  E=-3.952463D-01  Symmetry=b2
              MO Center=  1.8D-36,  5.4D-20, -1.7D-01, r^2= 4.2D-01
   Bfn.  Coefficient  Atom+Function         Bfn.  Coefficient  Atom+Function  
  ----- ------------  ---------------      ----- ------------  ---------------
     5      1.000000  2 O  py         
 
 Vector    5  Occ=2.000000D+00  E=-3.795036D-01  Symmetry=a1
              MO Center= -1.2D-15,  4.3D-24,  8.0D-02, r^2= 1.1D+00
   Bfn.  Coefficient  Atom+Function         Bfn.  Coefficient  Atom+Function  
  ----- ------------  ---------------      ----- ------------  ---------------
     6      0.720453  2 O  pz                 1      0.403942  1 H  s          
     7      0.403942  3 H  s                  3     -0.313985  2 O  s          
 
 Vector    6  Occ=0.000000D+00  E= 2.703154D-01  Symmetry=a1
              MO Center=  1.6D-14, -3.8D-23,  3.8D-01, r^2= 1.5D+00
   Bfn.  Coefficient  Atom+Function         Bfn.  Coefficient  Atom+Function  
  ----- ------------  ---------------      ----- ------------  ---------------
     6      0.719032  2 O  pz                 1     -0.603568  1 H  s          
     7     -0.603568  3 H  s                  3      0.373193  2 O  s          
 
 Vector    7  Occ=0.000000D+00  E= 3.553008D-01  Symmetry=b1
              MO Center= -1.4D-14, -3.4D-34,  2.7D-01, r^2= 1.4D+00
   Bfn.  Coefficient  Atom+Function         Bfn.  Coefficient  Atom+Function  
  ----- ------------  ---------------      ----- ------------  ---------------
     4      0.830083  2 O  px                 1     -0.600370  1 H  s          
     7      0.600370  3 H  s          
 

 center of mass
 --------------
 x =   0.00000000 y =   0.00000000 z =  -0.13910858

 moments of inertia (a.u.)
 ------------------
           4.464498254644           0.000000000000           0.000000000000
           0.000000000000          13.996372547760           0.000000000000
           0.000000000000           0.000000000000           9.531874293116
 
  Mulliken analysis of the total density
  --------------------------------------

    Atom       Charge   Shell Charges
 -----------   ------   -------------------------------------------------------
    1 H    1     0.94   0.94
    2 O    8     8.11   2.00  1.94  4.17
    3 H    1     0.94   0.94
 
       Multipole analysis of the density wrt the origin
       ------------------------------------------------
 
     L   x y z        total         open         nuclear
     -   - - -        -----         ----         -------
     0   0 0 0     -0.000000      0.000000     10.000000
 
     1   1 0 0      0.000000      0.000000      0.000000
     1   0 1 0     -0.000000      0.000000      0.000000
     1   0 0 1      0.432069      0.000000      0.000000
 
     2   2 0 0     -3.062616      0.000000      9.457866
     2   1 1 0      0.000000      0.000000      0.000000
     2   1 0 1      0.000000      0.000000      0.000000
     2   0 2 0     -4.733292      0.000000      0.000000
     2   0 1 1     -0.000000      0.000000      0.000000
     2   0 0 2     -4.007923      0.000000      3.990460
 

 Parallel integral file used       1 records with       0 large values

                   NWChem Extensible Many-Electron Theory Module
                   ---------------------------------------------
 
              ======================================================
                   This portion of the program was automatically
                  generated by a Tensor Contraction Engine (TCE).
                  The development of this portion of the program
                 and TCE was supported by US Department of Energy,
                Office of Science, Office of Basic Energy Science.
                      TCE is a product of Battelle and PNNL.
              Please cite: S.Hirata, J.Phys.Chem.A 107, 9887 (2003).
              ======================================================
 
                                  tce_ipccsd_h2o
 
 
            General Information
            -------------------
      Number of processors :     1
         Wavefunction type : Restricted Hartree-Fock
          No. of electrons :    10
           Alpha electrons :     5
            Beta electrons :     5
           No. of orbitals :    14
            Alpha orbitals :     7
             Beta orbitals :     7
        Alpha frozen cores :     1
         Beta frozen cores :     1
     Alpha frozen virtuals :     0
      Beta frozen virtuals :     0
         Spin multiplicity : singlet 
    Number of AO functions :     7
       Number of AO shells :     5
        Use of symmetry is : on 
      Symmetry adaption is : on 
         Schwarz screening : 0.10D-09
 
          Correlation Information
          -----------------------
          Calculation type : Coupled-cluster singles & doubles                           
   Perturbative correction : none                                                        
            Max iterations :      100
        Residual threshold : 0.10D-05
     T(0) DIIS level shift : 0.00D+00
     L(0) DIIS level shift : 0.00D+00
     T(1) DIIS level shift : 0.00D+00
     L(1) DIIS level shift : 0.00D+00
     T(R) DIIS level shift : 0.00D+00
     T(I) DIIS level shift : 0.00D+00
   CC-T/L Amplitude update :  5-th order DIIS
     No. of excited states :     1
               Target root :     1
           Target symmetry : none
      Symmetry restriction : off
   Dipole & oscillator str : off
                I/O scheme : Global Array Library
        L-threshold :  0.10D-05
        EOM-threshold :  0.10D-05
 no EOMCCSD initial starts read in
 TCE RESTART OPTIONS
 READ_INT:   F
 WRITE_INT:  F
 READ_TA:    F
 WRITE_TA:   F
 READ_XA:    F
 WRITE_XA:   F
 READ_IN3:   F
 WRITE_IN3:  F
 SLICE:      F
 D4D5:       F
 
            Memory Information
            ------------------
          Available GA space size is      26214351 doubles
          Available MA space size is      26213660 doubles
 
 Maximum block size supplied by input
 Maximum block size        30 doubles

 tile_dim =      2

 Block   Spin    Irrep     Size     Offset   Alpha
 -------------------------------------------------
   1    alpha     a1     2 doubles       0       1
   2    alpha     b1     1 doubles       2       2
   3    alpha     b2     1 doubles       3       3
   4    beta      a1     2 doubles       4       1
   5    beta      b1     1 doubles       6       2
   6    beta      b2     1 doubles       7       3
   7    alpha     a1     1 doubles       8       7
   8    alpha     b1     1 doubles       9       8
   9    beta      a1     1 doubles      10       7
  10    beta      b1     1 doubles      11       8

 Global array virtual files algorithm will be used

 Parallel file system coherency ......... OK

 #quartets = 1.200D+02 #integrals = 2.560D+02 #direct =  0.0% #cached =100.0%


 Integral file          = ./tce_ipccsd_h2o.aoints.0
 Record size in doubles =  65536        No. of integs per rec  =  43688
 Max. records in memory =      2        Max. records in file   = 113737
 No. of bits per label  =      8        No. of bits per value  =     64

 
 Fock matrix recomputed
 1-e file size   =               14
 1-e file name   = ./tce_ipccsd_h2o.f1
 Cpu & wall time / sec            0.0            0.0
 4-electron integrals stored in orbital form
 
 v2    file size   =              106
 4-index algorithm nr.  13 is used
 imaxsize =       40
 imaxsize ichop =        0
 Cpu & wall time / sec            0.0            0.0
 T1-number-of-tasks                     2
 
 t1 file size   =                3
 t1 file name   = ./tce_ipccsd_h2o.t1
 t1 file handle =       -998
 T2-number-of-boxes                    17
 
 t2 file size   =               34
 t2 file name   = ./tce_ipccsd_h2o.t2
 t2 file handle =       -996

 CCSD iterations
 -----------------------------------------------------------------
 Iter          Residuum       Correlation     Cpu    Wall    V2*C2
 -----------------------------------------------------------------
    1   0.1319940449851  -0.0948667836914     0.2     0.1     0.0
    2   0.0653108969832  -0.1217379181409     0.2     0.1     0.0
    3   0.0343698600699  -0.1327088235066     0.2     0.1     0.0
    4   0.0188849350224  -0.1383136113936     0.2     0.1     0.0
    5   0.0110143172602  -0.1412202964052     0.2     0.1     0.0
 MICROCYCLE DIIS UPDATE:                     5                     5
    6   0.0011145921620  -0.1447800860531     0.2     0.1     0.0
    7   0.0006136652104  -0.1447186808656     0.2     0.1     0.0
    8   0.0003920423878  -0.1447245678331     0.2     0.1     0.0
    9   0.0002598728593  -0.1447331364994     0.2     0.1     0.0
   10   0.0001752797745  -0.1447384024047     0.2     0.1     0.0
 MICROCYCLE DIIS UPDATE:                    10                     5
   11   0.0000180116872  -0.1447481019131     0.2     0.1     0.0
   12   0.0000086052743  -0.1447500097673     0.2     0.1     0.0
   13   0.0000053540665  -0.1447508928025     0.2     0.1     0.0
   14   0.0000035238809  -0.1447513783205     0.2     0.1     0.0
   15   0.0000023566368  -0.1447516689107     0.2     0.1     0.0
 MICROCYCLE DIIS UPDATE:                    15                     5
   16   0.0000002839793  -0.1447521600994     0.2     0.1     0.0
 -----------------------------------------------------------------
 Iterations converged
 CCSD correlation energy / hartree =        -0.144752160099393
 CCSD total energy / hartree       =       -74.898611956352823

 Singles contributions

 Doubles contributions
     6a1  (alpha)     6a1  (beta ) ---     5a1  (alpha)     5a1  (beta )       -0.1982896608
     6a1  (alpha)     6a1  (beta ) ---     3b1  (alpha)     3b1  (beta )       -0.1008076164
     6a1  (alpha)     7b1  (beta ) ---     5a1  (alpha)     3b1  (beta )       -0.1402128028
     6a1  (alpha)     7b1  (beta ) ---     3b1  (alpha)     5a1  (beta )       -0.1304257727
     7b1  (alpha)     6a1  (beta ) ---     5a1  (alpha)     3b1  (beta )       -0.1304257727
     7b1  (alpha)     6a1  (beta ) ---     3b1  (alpha)     5a1  (beta )       -0.1402128028
     7b1  (alpha)     7b1  (beta ) ---     3b1  (alpha)     3b1  (beta )       -0.1711703450
 
 IPCCSD calculation
 
 Ground-state symmetry is a1  
 
 =========================================
 Excited-state calculation ( a1  symmetry)
 =========================================
 Dim. of EOMCC iter. space      500
 
 x1 file size   =                2
 
 x2 file size   =               18

 EOMCCSD SOLVER TYPE  1

 No. of initial right vectors    1

 EOM-CCSD right-hand side iterations
 --------------------------------------------------------------
      Residuum       Omega / hartree  Omega / eV    Cpu    Wall
 --------------------------------------------------------------

 Iteration   1 using    1 trial vectors
   0.2281281291748   0.4489858447526   12.21753     0.4     0.1

 Iteration   2 using    2 trial vectors
   0.0534141682823   0.3819964203639   10.39466     0.4     0.1

 Iteration   3 using    3 trial vectors
   0.0220062383868   0.3777031489903   10.27783     0.4     0.1

 Iteration   4 using    4 trial vectors
   0.0086528705318   0.3776823217092   10.27726     0.4     0.1

 Iteration   5 using    5 trial vectors
   0.0029564477588   0.3777923395898   10.28026     0.4     0.1

 Iteration   6 using    6 trial vectors
   0.0003248204380   0.3777062312728   10.27791     0.4     0.1

 Iteration   7 using    7 trial vectors
   0.0001042662800   0.3777075754653   10.27795     0.4     0.1

 Iteration   8 using    8 trial vectors
   0.0000159647815   0.3777074466501   10.27795     0.4     0.1

 Iteration   9 using    9 trial vectors
   0.0000023309023   0.3777075395917   10.27795     0.4     0.1

 Iteration  10 using   10 trial vectors
   0.0000001253728   0.3777074838491   10.27795     0.4     0.1
 --------------------------------------------------------------
 Iterations converged
 largest EOMCCSD amplitudes: R1 and R2

 Singles contributions
     5a1  (alpha)       -0.9604479714

 Doubles contributions
     6a1  (beta )  ---     5a1  (alpha)     5a1  (beta )        0.2032390223
     7b1  (beta )  ---     5a1  (alpha)     3b1  (beta )        0.1027340896
 
 =========================================
 Excited-state calculation ( a2  symmetry)
 =========================================
 Dim. of EOMCC iter. space      500
 
 x1 file size   =                1
 
 x2 file size   =                9

 EOMCCSD SOLVER TYPE  1

 No. of initial right vectors    0
 No. of roots reduced from       1 to    0
 
 =========================================
 Excited-state calculation ( b1  symmetry)
 =========================================
 Dim. of EOMCC iter. space      500
 
 x1 file size   =                1
 
 x2 file size   =               18

 EOMCCSD SOLVER TYPE  1

 No. of initial right vectors    1

 EOM-CCSD right-hand side iterations
 --------------------------------------------------------------
      Residuum       Omega / hartree  Omega / eV    Cpu    Wall
 --------------------------------------------------------------

 Iteration   1 using    1 trial vectors
   0.1812349832221   0.5063329772300   13.77803     0.4     0.1

 Iteration   2 using    2 trial vectors
   0.0268897827328   0.4657549799607   12.67384     0.4     0.1

 Iteration   3 using    3 trial vectors
   0.0097431981225   0.4637171765738   12.61839     0.4     0.1

 Iteration   4 using    4 trial vectors
   0.0027092298286   0.4637856674946   12.62026     0.4     0.1

 Iteration   5 using    5 trial vectors
   0.0006577055311   0.4638204553881   12.62120     0.5     0.1

 Iteration   6 using    6 trial vectors
   0.0003156123507   0.4638110222948   12.62095     0.4     0.1

 Iteration   7 using    7 trial vectors
   0.0000707889400   0.4638132408145   12.62101     0.4     0.1

 Iteration   8 using    8 trial vectors
   0.0000123576209   0.4638145449669   12.62104     0.4     0.1

 Iteration   9 using    9 trial vectors
   0.0000009084029   0.4638145281237   12.62104     0.4     0.1
 --------------------------------------------------------------
 Iterations converged
 largest EOMCCSD amplitudes: R1 and R2

 Singles contributions
     3b1  (alpha)        0.9804042412

 Doubles contributions
     6a1  (alpha)  ---     5a1  (alpha)     3b1  (alpha)        0.1081545129
 
 =========================================
 Excited-state calculation ( b2  symmetry)
 =========================================
 Dim. of EOMCC iter. space      500
 
 x1 file size   =                1
 
 x2 file size   =                9

 EOMCCSD SOLVER TYPE  1

 No. of initial right vectors    1

 EOM-CCSD right-hand side iterations
 --------------------------------------------------------------
      Residuum       Omega / hartree  Omega / eV    Cpu    Wall
 --------------------------------------------------------------

 Iteration   1 using    1 trial vectors
   0.2938305169637   0.4091847019426   11.13449     0.4     0.1

 Iteration   2 using    2 trial vectors
   0.0308490398395   0.2664954487737    7.25171     0.4     0.1

 Iteration   3 using    3 trial vectors
   0.0061554177721   0.2658831975594    7.23505     0.4     0.1

 Iteration   4 using    4 trial vectors
   0.0005519523458   0.2659549932402    7.23701     0.4     0.1

 Iteration   5 using    5 trial vectors
   0.0000800986847   0.2659506145055    7.23689     0.4     0.1

 Iteration   6 using    6 trial vectors
   0.0000000071742   0.2659500940019    7.23687     0.4     0.1
 --------------------------------------------------------------
 Iterations converged
 largest EOMCCSD amplitudes: R1 and R2

 Singles contributions
     4b2  (alpha)        0.9455678518

 Doubles contributions
     6a1  (alpha)  ---     5a1  (alpha)     4b2  (alpha)        0.1031576030
     7b1  (alpha)  ---     3b1  (alpha)     4b2  (alpha)        0.1118438343
     6a1  (beta )  ---     4b2  (alpha)     5a1  (beta )       -0.1773558468
     7b1  (beta )  ---     4b2  (alpha)     3b1  (beta )       -0.1883118565

 Parallel integral file used       1 records with       0 large values


 Task  times  cpu:       14.5s     wall:        4.1s
 
 
                                NWChem Input Module
                                -------------------
 
 
 Summary of allocated global arrays
-----------------------------------
  No active global arrays



                         GA Statistics for process    0
                         ------------------------------

       create   destroy   get      put      acc     scatter   gather  read&inc
calls: 5540     5540     1.28e+05 6555     5.73e+04    0        0     4.35e+05 
number of processes/call 1.00e+00 1.00e+00 1.00e+00 0.00e+00 0.00e+00
bytes total:             2.82e+06 2.12e+05 1.23e+06 0.00e+00 0.00e+00 3.48e+06
bytes remote:            0.00e+00 0.00e+00 0.00e+00 0.00e+00 0.00e+00 0.00e+00
Max memory consumed for GA by this process: 20568 bytes
 
 
 
                                     CITATION
                                     --------
                Please cite the following reference when publishing
                           results obtained with NWChem:
 
                 M. Valiev, E.J. Bylaska, N. Govind, K. Kowalski,
              T.P. Straatsma, H.J.J. van Dam, D. Wang, J. Nieplocha,
                        E. Apra, T.L. Windus, W.A. de Jong
                 "NWChem: a comprehensive and scalable open-source
                  solution for large scale molecular simulations"
                      Comput. Phys. Commun. 181, 1477 (2010)
                           doi:10.1016/j.cpc.2010.04.018
 
                                      AUTHORS
                                      -------
          E. Apra, E. J. Bylaska, W. A. de Jong, N. Govind, K. Kowalski,
       T. P. Straatsma, M. Valiev, H. J. J. van Dam, D. Wang, T. L. Windus,
        J. Hammond, J. Autschbach, K. Bhaskaran-Nair, J. Brabec, K. Lopata,
       S. A. Fischer, S. Krishnamoorthy, W. Ma, M. Klemm, O. Villa, Y. Chen,
    V. Anisimov, F. Aquino, S. Hirata, M. T. Hackler, V. Konjkov, T. Risthaus,
       M. Malagoli, A. Marenich, A. Otero-de-la-Roza, J. Mullin, P. Nichols,
      R. Peverati, J. Pittner, Y. Zhao, P.-D. Fan, A. Fonari, M. Williamson,
      R. J. Harrison, J. R. Rehr, M. Dupuis, D. Silverstein, D. M. A. Smith,
            J. Nieplocha, V. Tipparaju, M. Krishnan, B. E. Van Kuiken,
        A. Vazquez-Mayagoitia, L. Jensen, M. Swart, Q. Wu, T. Van Voorhis,
     A. A. Auer, M. Nooijen, L. D. Crosby, E. Brown, G. Cisneros, G. I. Fann,
   H. Fruchtl, J. Garza, K. Hirao, R. A. Kendall, J. A. Nichols, K. Tsemekhman,
    K. Wolinski, J. Anchell, D. E. Bernholdt, P. Borowski, T. Clark, D. Clerc,
   H. Dachsel, M. J. O. Deegan, K. Dyall, D. Elwood, E. Glendening, M. Gutowski,
   A. C. Hess, J. Jaffe, B. G. Johnson, J. Ju, R. Kobayashi, R. Kutteh, Z. Lin,
   R. Littlefield, X. Long, B. Meng, T. Nakajima, S. Niu, L. Pollack, M. Rosing,
   K. Glaesemann, G. Sandrone, M. Stave, H. Taylor, G. Thomas, J. H. van Lenthe,
                               A. T. Wong, Z. Zhang.

 Total times  cpu:       14.7s     wall:        4.1s
MA_summarize_allocated_blocks: starting scan ...
MA_summarize_allocated_blocks: scan completed: 0 heap blocks, 0 stack blocks
MA usage statistics:

	allocation statistics:
					      heap	     stack
					      ----	     -----
	current number of blocks	         0	         0
	maximum number of blocks	        18	        35
	current total bytes		         0	         0
	maximum total bytes		   1054152	  22509224
	maximum total K-bytes		      1055	     22510
	maximum total M-bytes		         2	        23
