refund: UserID = kowalski
refund: SLURM Job ID = 1519976
refund: Number of nodes          = 1
refund: Number of cores per node = 16
refund: Number of cores          = 16
refund: Amount of time requested = 0:30
refund: Directory = /home/kowalski/GFCCSD/REVISION/14NQ
 
Processor list
 
g1
 
 argument  1 = /home/kowalski/GFCCSD/REVISION/14NQ/14nq_ipeomccsd_631G.nw
                                         
                                         
 
 
              Northwest Computational Chemistry Package (NWChem) 6.5
              ------------------------------------------------------
 
 
                    Environmental Molecular Sciences Laboratory
                       Pacific Northwest National Laboratory
                                Richland, WA 99352
 
                              Copyright (c) 1994-2013
                       Pacific Northwest National Laboratory
                            Battelle Memorial Institute
 
             NWChem is an open-source computational chemistry package
                        distributed under the terms of the
                      Educational Community License (ECL) 2.0
             A copy of the license is included with this distribution
                              in the LICENSE.TXT file
 
                                  ACKNOWLEDGMENT
                                  --------------

            This software and its documentation were developed at the
            EMSL at Pacific Northwest National Laboratory, a multiprogram
            national laboratory, operated for the U.S. Department of Energy
            by Battelle under Contract Number DE-AC05-76RL01830. Support
            for this work was provided by the Department of Energy Office
            of Biological and Environmental Research, Office of Basic
            Energy Sciences, and the Office of Advanced Scientific Computing.


           Job information
           ---------------

    hostname        = g1
    program         = /home/kowalski/nwchem_2016/bin/LINUX64/nwchem
    date            = Mon Jan 25 11:18:53 2016

    compiled        = Thu_Sep_17_09:14:25_2015
    source          = /home/kowalski/nwchem_2016
    nwchem branch   = Development
    nwchem revision = 27355
    ga revision     = 10584
    input           = /home/kowalski/GFCCSD/REVISION/14NQ/14nq_ipeomccsd_631G.nw
    prefix          = 14nq_ipeomccsd_631G.
    data base       = /dtemp/kowalski/14nq_ipeomccsd_631G.db
    status          = startup
    nproc           =       16
    time left       =     -1s



           Memory information
           ------------------

    heap     =   13107196 doubles =    100.0 Mbytes
    stack    =  183500801 doubles =   1400.0 Mbytes
    global   =  275251200 doubles =   2100.0 Mbytes (distinct from heap & stack)
    total    =  471859197 doubles =   3600.0 Mbytes
    verify   = no 
    hardfail = no 


           Directory information
           ---------------------
 
  0 permanent = /dtemp/kowalski
  0 scratch   = .
 
 
 
 
                                NWChem Input Module
                                -------------------
 
 

 Scaling coordinates for geometry "geometry" by  1.889725989
 (inverse scale =  0.529177249)

 C2V symmetry detected

          ------
          auto-z
          ------
 
 
                             Geometry "geometry" -> ""
                             -------------------------
 
 Output coordinates in angstroms (scale by  1.889725989 to convert to a.u.)
 
  No.       Tag          Charge          X              Y              Z
 ---- ---------------- ---------- -------------- -------------- --------------
    1 C                    6.0000     0.00000000     0.69835120     2.67372426
    2 C                    6.0000     0.00000000    -0.69835120     2.67372426
    3 C                    6.0000     0.00000000     1.39720197     1.47150203
    4 C                    6.0000     0.00000000    -1.39720197     1.47150203
    5 C                    6.0000     0.00000000     0.70291404     0.26048927
    6 C                    6.0000     0.00000000    -0.70291404     0.26048927
    7 C                    6.0000     0.00000000     1.46297542    -1.02391219
    8 C                    6.0000     0.00000000    -1.46297542    -1.02391219
    9 C                    6.0000     0.00000000     0.66973692    -2.27875069
   10 C                    6.0000     0.00000000    -0.66973692    -2.27875069
   11 O                    8.0000     0.00000000     2.68121008    -1.06033054
   12 O                    8.0000     0.00000000    -2.68121008    -1.06033054
   13 H                    1.0000     0.00000000     1.23980475     3.61279753
   14 H                    1.0000     0.00000000    -1.23980475     3.61279753
   15 H                    1.0000     0.00000000     2.47999912     1.44596507
   16 H                    1.0000     0.00000000    -2.47999912     1.44596507
   17 H                    1.0000     0.00000000     1.25099095    -3.19443433
   18 H                    1.0000     0.00000000    -1.25099095    -3.19443433
 
      Atomic Mass 
      ----------- 
 
      C                 12.000000
      O                 15.994910
      H                  1.007825
 

 Effective nuclear repulsion energy (a.u.)     622.7864556271

            Nuclear Dipole moment (a.u.) 
            ----------------------------
        X                 Y               Z
 ---------------- ---------------- ----------------
     0.0000000000     0.0000000000     0.0000000000
 
      Symmetry information
      --------------------
 
 Group name             C2v       
 Group number             16
 Group order               4
 No. of unique centers     9
 
      Symmetry unique atoms
 
     1    3    5    7    9   11   13   15   17
 


                                Z-matrix (autoz)
                                -------- 

 Units are Angstrom for bonds and degrees for angles
 
      Type          Name      I     J     K     L     M      Value
      ----------- --------  ----- ----- ----- ----- ----- ----------
    1 Stretch                  1     2                       1.39670
    2 Stretch                  1     3                       1.39059
    3 Stretch                  1    13                       1.08399
    4 Stretch                  2     4                       1.39059
    5 Stretch                  2    14                       1.08399
    6 Stretch                  3     5                       1.39592
    7 Stretch                  3    15                       1.08310
    8 Stretch                  4     6                       1.39592
    9 Stretch                  4    16                       1.08310
   10 Stretch                  5     6                       1.40583
   11 Stretch                  5     7                       1.49244
   12 Stretch                  6     8                       1.49244
   13 Stretch                  7     9                       1.48454
   14 Stretch                  7    11                       1.21878
   15 Stretch                  8    10                       1.48454
   16 Stretch                  8    12                       1.21878
   17 Stretch                  9    10                       1.33947
   18 Stretch                  9    17                       1.08459
   19 Stretch                 10    18                       1.08459
   20 Bend                     1     2     4               120.16940
   21 Bend                     1     2    14               119.96701
   22 Bend                     1     3     5               120.00444
   23 Bend                     1     3    15               121.52043
   24 Bend                     2     1     3               120.16940
   25 Bend                     2     1    13               119.96701
   26 Bend                     2     4     6               120.00444
   27 Bend                     2     4    16               121.52043
   28 Bend                     3     1    13               119.86359
   29 Bend                     3     5     6               119.82616
   30 Bend                     3     5     7               119.55836
   31 Bend                     4     2    14               119.86359
   32 Bend                     4     6     5               119.82616
   33 Bend                     4     6     8               119.55836
   34 Bend                     5     3    15               118.47513
   35 Bend                     5     6     8               120.61548
   36 Bend                     5     7     9               117.08574
   37 Bend                     5     7    11               122.32779
   38 Bend                     6     4    16               118.47513
   39 Bend                     6     5     7               120.61548
   40 Bend                     6     8    10               117.08574
   41 Bend                     6     8    12               122.32779
   42 Bend                     7     9    10               122.29878
   43 Bend                     7     9    17               115.29482
   44 Bend                     8    10     9               122.29878
   45 Bend                     8    10    18               115.29482
   46 Bend                     9     7    11               120.58647
   47 Bend                     9    10    18               122.40640
   48 Bend                    10     8    12               120.58647
   49 Bend                    10     9    17               122.40640
   50 Torsion                  1     2     4     6           0.00000
   51 Torsion                  1     2     4    16         180.00000
   52 Torsion                  1     3     5     6           0.00000
   53 Torsion                  1     3     5     7         180.00000
   54 Torsion                  2     1     3     5           0.00000
   55 Torsion                  2     1     3    15         180.00000
   56 Torsion                  2     4     6     5           0.00000
   57 Torsion                  2     4     6     8         180.00000
   58 Torsion                  3     1     2     4           0.00000
   59 Torsion                  3     1     2    14         180.00000
   60 Torsion                  3     5     6     4           0.00000
   61 Torsion                  3     5     6     8         180.00000
   62 Torsion                  3     5     7     9         180.00000
   63 Torsion                  3     5     7    11           0.00000
   64 Torsion                  4     2     1    13         180.00000
   65 Torsion                  4     6     5     7         180.00000
   66 Torsion                  4     6     8    10         180.00000
   67 Torsion                  4     6     8    12           0.00000
   68 Torsion                  5     3     1    13         180.00000
   69 Torsion                  5     6     4    16         180.00000
   70 Torsion                  5     6     8    10           0.00000
   71 Torsion                  5     6     8    12         180.00000
   72 Torsion                  5     7     9    10           0.00000
   73 Torsion                  5     7     9    17         180.00000
   74 Torsion                  6     4     2    14         180.00000
   75 Torsion                  6     5     3    15         180.00000
   76 Torsion                  6     5     7     9           0.00000
   77 Torsion                  6     5     7    11         180.00000
   78 Torsion                  6     8    10     9           0.00000
   79 Torsion                  6     8    10    18         180.00000
   80 Torsion                  7     5     3    15           0.00000
   81 Torsion                  7     5     6     8           0.00000
   82 Torsion                  7     9    10     8           0.00000
   83 Torsion                  7     9    10    18         180.00000
   84 Torsion                  8     6     4    16           0.00000
   85 Torsion                  8    10     9    17         180.00000
   86 Torsion                  9    10     8    12         180.00000
   87 Torsion                 10     9     7    11         180.00000
   88 Torsion                 11     7     9    17           0.00000
   89 Torsion                 12     8    10    18           0.00000
   90 Torsion                 13     1     2    14           0.00000
   91 Torsion                 13     1     3    15           0.00000
   92 Torsion                 14     2     4    16           0.00000
   93 Torsion                 17     9    10    18           0.00000
 
 
            XYZ format geometry
            -------------------
    18
 geometry
 C                     0.00000000     0.69835120     2.67372426
 C                     0.00000000    -0.69835120     2.67372426
 C                     0.00000000     1.39720197     1.47150203
 C                     0.00000000    -1.39720197     1.47150203
 C                     0.00000000     0.70291404     0.26048927
 C                     0.00000000    -0.70291404     0.26048927
 C                     0.00000000     1.46297542    -1.02391219
 C                     0.00000000    -1.46297542    -1.02391219
 C                     0.00000000     0.66973692    -2.27875069
 C                     0.00000000    -0.66973692    -2.27875069
 O                     0.00000000     2.68121008    -1.06033054
 O                     0.00000000    -2.68121008    -1.06033054
 H                     0.00000000     1.23980475     3.61279753
 H                     0.00000000    -1.23980475     3.61279753
 H                     0.00000000     2.47999912     1.44596507
 H                     0.00000000    -2.47999912     1.44596507
 H                     0.00000000     1.25099095    -3.19443433
 H                     0.00000000    -1.25099095    -3.19443433
 
 ==============================================================================
                                internuclear distances
 ------------------------------------------------------------------------------
       center one      |      center two      | atomic units |  angstroms
 ------------------------------------------------------------------------------
    2 C                |   1 C                |     2.63938  |     1.39670
    3 C                |   1 C                |     2.62783  |     1.39059
    4 C                |   2 C                |     2.62783  |     1.39059
    5 C                |   3 C                |     2.63790  |     1.39592
    6 C                |   4 C                |     2.63790  |     1.39592
    6 C                |   5 C                |     2.65663  |     1.40583
    7 C                |   5 C                |     2.82030  |     1.49244
    8 C                |   6 C                |     2.82030  |     1.49244
    9 C                |   7 C                |     2.80537  |     1.48454
   10 C                |   8 C                |     2.80537  |     1.48454
   10 C                |   9 C                |     2.53124  |     1.33947
   11 O                |   7 C                |     2.30316  |     1.21878
   12 O                |   8 C                |     2.30316  |     1.21878
   13 H                |   1 C                |     2.04844  |     1.08399
   14 H                |   2 C                |     2.04844  |     1.08399
   15 H                |   3 C                |     2.04676  |     1.08310
   16 H                |   4 C                |     2.04676  |     1.08310
   17 H                |   9 C                |     2.04958  |     1.08459
   18 H                |  10 C                |     2.04958  |     1.08459
 ------------------------------------------------------------------------------
                         number of included internuclear distances:         19
 ==============================================================================



 ==============================================================================
                                 internuclear angles
 ------------------------------------------------------------------------------
        center 1       |       center 2       |       center 3       |  degrees
 ------------------------------------------------------------------------------
    2 C                |   1 C                |   3 C                |   120.17
    2 C                |   1 C                |  13 H                |   119.97
    3 C                |   1 C                |  13 H                |   119.86
    1 C                |   2 C                |   4 C                |   120.17
    1 C                |   2 C                |  14 H                |   119.97
    4 C                |   2 C                |  14 H                |   119.86
    1 C                |   3 C                |   5 C                |   120.00
    1 C                |   3 C                |  15 H                |   121.52
    5 C                |   3 C                |  15 H                |   118.48
    2 C                |   4 C                |   6 C                |   120.00
    2 C                |   4 C                |  16 H                |   121.52
    6 C                |   4 C                |  16 H                |   118.48
    3 C                |   5 C                |   6 C                |   119.83
    3 C                |   5 C                |   7 C                |   119.56
    6 C                |   5 C                |   7 C                |   120.62
    4 C                |   6 C                |   5 C                |   119.83
    4 C                |   6 C                |   8 C                |   119.56
    5 C                |   6 C                |   8 C                |   120.62
    5 C                |   7 C                |   9 C                |   117.09
    5 C                |   7 C                |  11 O                |   122.33
    9 C                |   7 C                |  11 O                |   120.59
    6 C                |   8 C                |  10 C                |   117.09
    6 C                |   8 C                |  12 O                |   122.33
   10 C                |   8 C                |  12 O                |   120.59
    7 C                |   9 C                |  10 C                |   122.30
    7 C                |   9 C                |  17 H                |   115.29
   10 C                |   9 C                |  17 H                |   122.41
    8 C                |  10 C                |   9 C                |   122.30
    8 C                |  10 C                |  18 H                |   115.29
    9 C                |  10 C                |  18 H                |   122.41
 ------------------------------------------------------------------------------
                            number of included internuclear angles:         30
 ==============================================================================



  library name resolved from: environment
  library file name is: <
 /home/scicons/cascade/apps/nwchem-6.6//src/basis/libraries/>
  


 Summary of "ao basis" -> "" (spherical)
 ------------------------------------------------------------------------------
       Tag                 Description            Shells   Functions and Types
 ---------------- ------------------------------  ------  ---------------------
 *                           6-31G                    on all atoms 


                      Basis "ao basis" -> "ao basis" (spherical)
                      -----
  C (Carbon)
  ----------
            Exponent  Coefficients 
       -------------- ---------------------------------------------------------
  1 S  3.04752490E+03  0.001835
  1 S  4.57369510E+02  0.014037
  1 S  1.03948690E+02  0.068843
  1 S  2.92101550E+01  0.232184
  1 S  9.28666300E+00  0.467941
  1 S  3.16392700E+00  0.362312
 
  2 S  7.86827240E+00 -0.119332
  2 S  1.88128850E+00 -0.160854
  2 S  5.44249300E-01  1.143456
 
  3 P  7.86827240E+00  0.068999
  3 P  1.88128850E+00  0.316424
  3 P  5.44249300E-01  0.744308
 
  4 S  1.68714400E-01  1.000000
 
  5 P  1.68714400E-01  1.000000
 
  O (Oxygen)
  ----------
            Exponent  Coefficients 
       -------------- ---------------------------------------------------------
  1 S  5.48467170E+03  0.001831
  1 S  8.25234950E+02  0.013950
  1 S  1.88046960E+02  0.068445
  1 S  5.29645000E+01  0.232714
  1 S  1.68975700E+01  0.470193
  1 S  5.79963530E+00  0.358521
 
  2 S  1.55396160E+01 -0.110778
  2 S  3.59993360E+00 -0.148026
  2 S  1.01376180E+00  1.130767
 
  3 P  1.55396160E+01  0.070874
  3 P  3.59993360E+00  0.339753
  3 P  1.01376180E+00  0.727159
 
  4 S  2.70005800E-01  1.000000
 
  5 P  2.70005800E-01  1.000000
 
  H (Hydrogen)
  ------------
            Exponent  Coefficients 
       -------------- ---------------------------------------------------------
  1 S  1.87311370E+01  0.033495
  1 S  2.82539370E+00  0.234727
  1 S  6.40121700E-01  0.813757
 
  2 S  1.61277800E-01  1.000000
 


 Summary of "ao basis" -> "ao basis" (spherical)
 ------------------------------------------------------------------------------
       Tag                 Description            Shells   Functions and Types
 ---------------- ------------------------------  ------  ---------------------
 C                           6-31G                   5        9   3s2p
 O                           6-31G                   5        9   3s2p
 H                           6-31G                   2        2   2s


                                 NWChem SCF Module
                                 -----------------
 
 

  ao basis        = "ao basis"
  functions       =   120
  atoms           =    18
  closed shells   =    41
  open shells     =     0
  charge          =   0.00
  wavefunction    = RHF 
  input vectors   = atomic
  output vectors  = /dtemp/kowalski/14nq_ipeomccsd_631G.movecs
  use symmetry    = T
  symmetry adapt  = T


 Summary of "ao basis" -> "ao basis" (spherical)
 ------------------------------------------------------------------------------
       Tag                 Description            Shells   Functions and Types
 ---------------- ------------------------------  ------  ---------------------
 C                           6-31G                   5        9   3s2p
 O                           6-31G                   5        9   3s2p
 H                           6-31G                   2        2   2s


      Symmetry analysis of basis
      --------------------------
 
        a1         48
        a2         12
        b1         12
        b2         48
 

 Forming initial guess at       0.5s

 
      Superposition of Atomic Density Guess
      -------------------------------------
 
 Sum of atomic energies:        -529.10064118
 
      Non-variational initial energy
      ------------------------------

 Total energy =    -536.647768
 1-e energy   =   -1953.755132
 2-e energy   =     794.320908
 HOMO         =      -0.279080
 LUMO         =      -0.125200
 
 
      Symmetry analysis of molecular orbitals - initial
      -------------------------------------------------
 
  Numbering of irreducible representations: 
 
     1 a1          2 a2          3 b1          4 b2      
 
  Orbital symmetries:
 
     1 b2          2 a1          3 a1          4 b2          5 a1      
     6 a1          7 b2          8 b2          9 a1         10 b2      
    11 a1         12 b2         13 a1         14 b2         15 a1      
    16 a1         17 b2         18 a1         19 b2         20 a1      
    21 b2         22 a1         23 b2         24 a1         25 a1      
    26 b2         27 a1         28 b1         29 a2         30 b2      
    31 a1         32 b2         33 a1         34 b1         35 b2      
    36 a1         37 b1         38 a1         39 a2         40 b1      
    41 b2         42 a2         43 b1         44 a2         45 b1      
    46 a2         47 a1         48 a1         49 b2         50 a1      
    51 b2      
 

 Starting SCF solution at       0.6s



 ----------------------------------------------
         Quadratically convergent ROHF

 Convergence threshold     :          1.000E-10
 Maximum no. of iterations :           30
 Final Fock-matrix accuracy:          1.000E-10
 ----------------------------------------------


              iter       energy          gnorm     gmax       time
             ----- ------------------- --------- --------- --------
                 1     -531.4353954518  1.85D+00  4.14D-01      0.2
                 2     -531.6458952740  6.37D-01  9.21D-02      0.6
                 3     -531.6876774955  5.65D-02  1.26D-02      1.0
                 4     -531.6882652688  1.42D-03  3.07D-04      1.6
                 5     -531.6882656373  1.28D-06  4.13D-07      2.7
  ga_iter_lsolve: convergence stagnant ... aborting solve
                 6     -531.6882656373  9.29D-11  3.50D-11      4.1


       Final RHF  results 
       ------------------ 

         Total SCF energy =   -531.688265637307
      One-electron energy =  -1957.565154333187
      Two-electron energy =    803.090433068787
 Nuclear repulsion energy =    622.786455627093

        Time for solution =      4.0s


 
       Symmetry analysis of molecular orbitals - final
       -----------------------------------------------
 
  Numbering of irreducible representations: 
 
     1 a1          2 a2          3 b1          4 b2      
 
  Orbital symmetries:
 
     1 b2          2 a1          3 b2          4 a1          5 a1      
     6 b2          7 a1          8 b2          9 a1         10 b2      
    11 a1         12 b2         13 a1         14 b2         15 a1      
    16 a1         17 b2         18 a1         19 b2         20 a1      
    21 b2         22 a1         23 a1         24 b2         25 a1      
    26 a1         27 b2         28 a1         29 b2         30 a1      
    31 b1         32 b2         33 a2         34 b2         35 a1      
    36 b1         37 a1         38 b2         39 b1         40 b1      
    41 a2         42 a2         43 b1         44 a2         45 b1      
    46 a1         47 a1         48 a2         49 b2         50 b2      
    51 a1      
 
             Final eigenvalues
             -----------------

              1      
    1  -20.5862
    2  -20.5862
    3  -11.3720
    4  -11.3720
    5  -11.2878
    6  -11.2862
    7  -11.2821
    8  -11.2810
    9  -11.2711
   10  -11.2701
   11  -11.2689
   12  -11.2688
   13   -1.4321
   14   -1.4301
   15   -1.1985
   16   -1.1351
   17   -1.0571
   18   -1.0560
   19   -0.9533
   20   -0.8851
   21   -0.8759
   22   -0.8071
   23   -0.7436
   24   -0.7390
   25   -0.6991
   26   -0.6729
   27   -0.6495
   28   -0.6308
   29   -0.6269
   30   -0.6039
   31   -0.6037
   32   -0.6022
   33   -0.5547
   34   -0.5479
   35   -0.5216
   36   -0.5129
   37   -0.4566
   38   -0.4314
   39   -0.4056
   40   -0.3663
   41   -0.3610
   42    0.0095
   43    0.0961
   44    0.1186
   45    0.2121
   46    0.2311
   47    0.2461
   48    0.2656
   49    0.2844
   50    0.3040
   51    0.3126
 
                       ROHF Final Molecular Orbital Analysis
                       -------------------------------------
 
 Vector   13  Occ=2.000000D+00  E=-1.432058D+00  Symmetry=a1
              MO Center= -1.1D-16, -1.2D-14, -1.0D+00, r^2= 5.8D+00
   Bfn.  Coefficient  Atom+Function         Bfn.  Coefficient  Atom+Function  
  ----- ------------  ---------------      ----- ------------  ---------------
    96      0.326102  11 O  s               105      0.326102  12 O  s         
    92      0.294493  11 O  s               101      0.294493  12 O  s         
    56      0.167947   7 C  s                65      0.167947   8 C  s         
 
 Vector   14  Occ=2.000000D+00  E=-1.430071D+00  Symmetry=b2
              MO Center= -7.5D-18,  1.0D-14, -1.0D+00, r^2= 5.9D+00
   Bfn.  Coefficient  Atom+Function         Bfn.  Coefficient  Atom+Function  
  ----- ------------  ---------------      ----- ------------  ---------------
    96      0.334967  11 O  s               105     -0.334967  12 O  s         
    92      0.297478  11 O  s               101     -0.297478  12 O  s         
    56      0.163594   7 C  s                65     -0.163594   8 C  s         
 
 Vector   15  Occ=2.000000D+00  E=-1.198526D+00  Symmetry=a1
              MO Center=  3.6D-33,  1.4D-15,  8.6D-01, r^2= 2.9D+00
   Bfn.  Coefficient  Atom+Function         Bfn.  Coefficient  Atom+Function  
  ----- ------------  ---------------      ----- ------------  ---------------
    38      0.206706   5 C  s                47      0.206706   6 C  s         
    20      0.160934   3 C  s                29      0.160934   4 C  s         
 
 Vector   16  Occ=2.000000D+00  E=-1.135116D+00  Symmetry=a1
              MO Center=  2.4D-18,  1.4D-16, -9.6D-01, r^2= 4.7D+00
   Bfn.  Coefficient  Atom+Function         Bfn.  Coefficient  Atom+Function  
  ----- ------------  ---------------      ----- ------------  ---------------
    74      0.246010   9 C  s                83      0.246010  10 C  s         
    78      0.159847   9 C  s                87      0.159847  10 C  s         
 
 Vector   17  Occ=2.000000D+00  E=-1.057073D+00  Symmetry=b2
              MO Center= -1.1D-32, -1.1D-16,  1.2D+00, r^2= 3.2D+00
   Bfn.  Coefficient  Atom+Function         Bfn.  Coefficient  Atom+Function  
  ----- ------------  ---------------      ----- ------------  ---------------
    20      0.245766   3 C  s                29     -0.245766   4 C  s         
    24      0.164404   3 C  s                33     -0.164404   4 C  s         
    38      0.153104   5 C  s                47     -0.153104   6 C  s         
 
 Vector   18  Occ=2.000000D+00  E=-1.055973D+00  Symmetry=a1
              MO Center=  2.0D-17, -2.8D-17,  6.6D-01, r^2= 5.1D+00
   Bfn.  Coefficient  Atom+Function         Bfn.  Coefficient  Atom+Function  
  ----- ------------  ---------------      ----- ------------  ---------------
     2      0.204853   1 C  s                11      0.204853   2 C  s         
    38     -0.193126   5 C  s                47     -0.193126   6 C  s         
     6      0.153048   1 C  s                15      0.153048   2 C  s         
 
 Vector   19  Occ=2.000000D+00  E=-9.532555D-01  Symmetry=b2
              MO Center=  1.7D-17, -4.7D-15, -8.4D-01, r^2= 4.7D+00
   Bfn.  Coefficient  Atom+Function         Bfn.  Coefficient  Atom+Function  
  ----- ------------  ---------------      ----- ------------  ---------------
    56      0.198978   7 C  s                65     -0.198978   8 C  s         
    60      0.160762   7 C  s                69     -0.160762   8 C  s         
    74      0.160780   9 C  s                83     -0.160780  10 C  s         
    96     -0.153064  11 O  s               105      0.153064  12 O  s         
 
 Vector   20  Occ=2.000000D+00  E=-8.850551D-01  Symmetry=a1
              MO Center=  7.9D-16,  3.9D-16,  6.3D-01, r^2= 5.7D+00
   Bfn.  Coefficient  Atom+Function         Bfn.  Coefficient  Atom+Function  
  ----- ------------  ---------------      ----- ------------  ---------------
    20      0.169690   3 C  s                29      0.169690   4 C  s         
    41      0.168119   5 C  pz               50      0.168119   6 C  pz        
 
 Vector   21  Occ=2.000000D+00  E=-8.759450D-01  Symmetry=b2
              MO Center=  5.4D-33, -4.2D-17,  1.3D-01, r^2= 6.2D+00
   Bfn.  Coefficient  Atom+Function         Bfn.  Coefficient  Atom+Function  
  ----- ------------  ---------------      ----- ------------  ---------------
    59      0.181897   7 C  pz               68     -0.181897   8 C  pz        
    23     -0.159007   3 C  pz               32      0.159007   4 C  pz        
 
 Vector   22  Occ=2.000000D+00  E=-8.070594D-01  Symmetry=a1
              MO Center= -9.2D-31,  1.7D-16,  2.6D-01, r^2= 5.2D+00
   Bfn.  Coefficient  Atom+Function         Bfn.  Coefficient  Atom+Function  
  ----- ------------  ---------------      ----- ------------  ---------------
    40      0.204213   5 C  py               49     -0.204213   6 C  py        
 
 Vector   23  Occ=2.000000D+00  E=-7.435877D-01  Symmetry=a1
              MO Center= -1.2D-32,  3.1D-16, -4.0D-01, r^2= 6.5D+00
   Bfn.  Coefficient  Atom+Function         Bfn.  Coefficient  Atom+Function  
  ----- ------------  ---------------      ----- ------------  ---------------
    59      0.213615   7 C  pz               68      0.213615   8 C  pz        
    76     -0.201954   9 C  py               85      0.201954  10 C  py        
    95      0.152611  11 O  pz              104      0.152611  12 O  pz        
 
 Vector   24  Occ=2.000000D+00  E=-7.389948D-01  Symmetry=b2
              MO Center=  5.4D-17,  2.4D-15,  4.3D-01, r^2= 7.6D+00
   Bfn.  Coefficient  Atom+Function         Bfn.  Coefficient  Atom+Function  
  ----- ------------  ---------------      ----- ------------  ---------------
    41      0.160301   5 C  pz               50     -0.160301   6 C  pz        
 
 Vector   25  Occ=2.000000D+00  E=-6.990789D-01  Symmetry=a1
              MO Center=  5.9D-32,  1.1D-15, -7.9D-01, r^2= 7.0D+00
   Bfn.  Coefficient  Atom+Function         Bfn.  Coefficient  Atom+Function  
  ----- ------------  ---------------      ----- ------------  ---------------
    94      0.206945  11 O  py              103     -0.206945  12 O  py        
    96      0.184052  11 O  s               105      0.184052  12 O  s         
    77      0.163269   9 C  pz               86      0.163269  10 C  pz        
 
 Vector   26  Occ=2.000000D+00  E=-6.729149D-01  Symmetry=a1
              MO Center=  4.2D-17, -4.3D-16,  5.7D-01, r^2= 7.9D+00
   Bfn.  Coefficient  Atom+Function         Bfn.  Coefficient  Atom+Function  
  ----- ------------  ---------------      ----- ------------  ---------------
    76      0.194218   9 C  py               85     -0.194218  10 C  py        
     5      0.170528   1 C  pz               14      0.170528   2 C  pz        
     4      0.165292   1 C  py               13     -0.165292   2 C  py        
 
 Vector   27  Occ=2.000000D+00  E=-6.494591D-01  Symmetry=b2
              MO Center=  8.5D-31,  0.0D+00, -6.1D-01, r^2= 8.3D+00
   Bfn.  Coefficient  Atom+Function         Bfn.  Coefficient  Atom+Function  
  ----- ------------  ---------------      ----- ------------  ---------------
    94      0.329159  11 O  py              103      0.329159  12 O  py        
    58     -0.236536   7 C  py               67     -0.236536   8 C  py        
    98      0.185412  11 O  py              107      0.185412  12 O  py        
    96      0.180153  11 O  s               105     -0.180153  12 O  s         
 
 Vector   28  Occ=2.000000D+00  E=-6.308159D-01  Symmetry=a1
              MO Center=  6.4D-17,  2.7D-15,  6.0D-01, r^2= 5.6D+00
   Bfn.  Coefficient  Atom+Function         Bfn.  Coefficient  Atom+Function  
  ----- ------------  ---------------      ----- ------------  ---------------
    23      0.249446   3 C  pz               32      0.249446   4 C  pz        
     5     -0.180267   1 C  pz               14     -0.180267   2 C  pz        
    41     -0.173375   5 C  pz               50     -0.173375   6 C  pz        
 
 Vector   29  Occ=2.000000D+00  E=-6.268903D-01  Symmetry=b2
              MO Center=  6.3D-17,  1.1D-14,  1.3D+00, r^2= 4.7D+00
   Bfn.  Coefficient  Atom+Function         Bfn.  Coefficient  Atom+Function  
  ----- ------------  ---------------      ----- ------------  ---------------
    22      0.317820   3 C  py               31      0.317820   4 C  py        
    26      0.207883   3 C  py               35      0.207883   4 C  py        
   113      0.199390  15 H  s               115     -0.199390  16 H  s         
 
 Vector   30  Occ=2.000000D+00  E=-6.039212D-01  Symmetry=a1
              MO Center= -4.9D-17,  3.3D-16, -5.6D-01, r^2= 7.6D+00
   Bfn.  Coefficient  Atom+Function         Bfn.  Coefficient  Atom+Function  
  ----- ------------  ---------------      ----- ------------  ---------------
    94      0.238495  11 O  py              103     -0.238495  12 O  py        
    76      0.230964   9 C  py               85     -0.230964  10 C  py        
    58     -0.193857   7 C  py               67      0.193857   8 C  py        
     4     -0.155013   1 C  py               13      0.155013   2 C  py        
 
 Vector   31  Occ=2.000000D+00  E=-6.036589D-01  Symmetry=b1
              MO Center=  5.7D-17,  1.1D-16, -6.7D-01, r^2= 4.8D+00
   Bfn.  Coefficient  Atom+Function         Bfn.  Coefficient  Atom+Function  
  ----- ------------  ---------------      ----- ------------  ---------------
    93      0.221197  11 O  px              102      0.221197  12 O  px        
    57      0.216215   7 C  px               66      0.216215   8 C  px        
    39      0.165793   5 C  px               48      0.165793   6 C  px        
 
 Vector   32  Occ=2.000000D+00  E=-6.021777D-01  Symmetry=b2
              MO Center=  5.9D-31, -1.4D-15, -1.6D+00, r^2= 6.3D+00
   Bfn.  Coefficient  Atom+Function         Bfn.  Coefficient  Atom+Function  
  ----- ------------  ---------------      ----- ------------  ---------------
    77      0.231525   9 C  pz               86     -0.231525  10 C  pz        
    95     -0.181445  11 O  pz              104      0.181445  12 O  pz        
   117     -0.176018  17 H  s               119      0.176018  18 H  s         
    58     -0.152102   7 C  py               67     -0.152102   8 C  py        
    81      0.150559   9 C  pz               90     -0.150559  10 C  pz        
 
 Vector   33  Occ=2.000000D+00  E=-5.547115D-01  Symmetry=a2
              MO Center= -3.5D-17,  0.0D+00, -1.0D+00, r^2= 5.9D+00
   Bfn.  Coefficient  Atom+Function         Bfn.  Coefficient  Atom+Function  
  ----- ------------  ---------------      ----- ------------  ---------------
    93      0.325725  11 O  px              102     -0.325725  12 O  px        
    57      0.247402   7 C  px               66     -0.247402   8 C  px        
    97      0.227808  11 O  px              106     -0.227808  12 O  px        
    61      0.162166   7 C  px               70     -0.162166   8 C  px        
 
 Vector   34  Occ=2.000000D+00  E=-5.478659D-01  Symmetry=b2
              MO Center= -1.3D-18, -1.1D-15,  1.6D+00, r^2= 6.1D+00
   Bfn.  Coefficient  Atom+Function         Bfn.  Coefficient  Atom+Function  
  ----- ------------  ---------------      ----- ------------  ---------------
     5      0.265103   1 C  pz               14     -0.265103   2 C  pz        
    23     -0.223659   3 C  pz               32      0.223659   4 C  pz        
    95     -0.201378  11 O  pz              104      0.201378  12 O  pz        
     9      0.179729   1 C  pz               18     -0.179729   2 C  pz        
   109      0.166248  13 H  s               111     -0.166248  14 H  s         
 
 Vector   35  Occ=2.000000D+00  E=-5.215792D-01  Symmetry=a1
              MO Center= -1.7D-31,  0.0D+00,  1.4D+00, r^2= 4.9D+00
   Bfn.  Coefficient  Atom+Function         Bfn.  Coefficient  Atom+Function  
  ----- ------------  ---------------      ----- ------------  ---------------
     4      0.257544   1 C  py               13     -0.257544   2 C  py        
    22     -0.229780   3 C  py               31      0.229780   4 C  py        
    40      0.201165   5 C  py               49     -0.201165   6 C  py        
    26     -0.169706   3 C  py               35      0.169706   4 C  py        
   113     -0.164461  15 H  s               115     -0.164461  16 H  s         
 
 Vector   36  Occ=2.000000D+00  E=-5.128886D-01  Symmetry=b1
              MO Center=  9.9D-18,  0.0D+00,  9.3D-01, r^2= 5.2D+00
   Bfn.  Coefficient  Atom+Function         Bfn.  Coefficient  Atom+Function  
  ----- ------------  ---------------      ----- ------------  ---------------
     3      0.208294   1 C  px               12      0.208294   2 C  px        
    21      0.187273   3 C  px               30      0.187273   4 C  px        
    93     -0.160989  11 O  px              102     -0.160989  12 O  px        
    39      0.157679   5 C  px               48      0.157679   6 C  px        
 
 Vector   37  Occ=2.000000D+00  E=-4.566066D-01  Symmetry=a1
              MO Center= -1.5D-34,  0.0D+00, -9.9D-01, r^2= 6.4D+00
   Bfn.  Coefficient  Atom+Function         Bfn.  Coefficient  Atom+Function  
  ----- ------------  ---------------      ----- ------------  ---------------
    95      0.402616  11 O  pz              104      0.402616  12 O  pz        
    99      0.297315  11 O  pz              108      0.297315  12 O  pz        
    42     -0.194596   5 C  s                51     -0.194596   6 C  s         
    40     -0.151497   5 C  py               49      0.151497   6 C  py        
 
 Vector   38  Occ=2.000000D+00  E=-4.313607D-01  Symmetry=b2
              MO Center= -3.5D-17,  2.1D-15, -9.3D-01, r^2= 6.1D+00
   Bfn.  Coefficient  Atom+Function         Bfn.  Coefficient  Atom+Function  
  ----- ------------  ---------------      ----- ------------  ---------------
    95      0.339921  11 O  pz              104     -0.339921  12 O  pz        
    45      0.293215   5 C  pz               54     -0.293215   6 C  pz        
    99      0.255741  11 O  pz              108     -0.255741  12 O  pz        
    78      0.238360   9 C  s                87     -0.238360  10 C  s         
    81      0.200604   9 C  pz               90     -0.200604  10 C  pz        
 
 Vector   39  Occ=2.000000D+00  E=-4.055781D-01  Symmetry=b1
              MO Center= -4.7D-17,  0.0D+00, -2.0D+00, r^2= 3.4D+00
   Bfn.  Coefficient  Atom+Function         Bfn.  Coefficient  Atom+Function  
  ----- ------------  ---------------      ----- ------------  ---------------
    75      0.333281   9 C  px               84      0.333281  10 C  px        
    79      0.280255   9 C  px               88      0.280255  10 C  px        
    93     -0.223743  11 O  px              102     -0.223743  12 O  px        
    97     -0.183368  11 O  px              106     -0.183368  12 O  px        
 
 Vector   40  Occ=2.000000D+00  E=-3.663443D-01  Symmetry=b1
              MO Center= -1.7D-15, -1.3D-15,  1.3D+00, r^2= 4.0D+00
   Bfn.  Coefficient  Atom+Function         Bfn.  Coefficient  Atom+Function  
  ----- ------------  ---------------      ----- ------------  ---------------
     3      0.266149   1 C  px               12      0.266149   2 C  px        
    39     -0.265089   5 C  px               48     -0.265089   6 C  px        
    43     -0.232410   5 C  px               52     -0.232410   6 C  px        
     7      0.220605   1 C  px               16      0.220605   2 C  px        
 
 Vector   41  Occ=2.000000D+00  E=-3.610056D-01  Symmetry=a2
              MO Center= -3.9D-17,  2.2D-16,  1.3D+00, r^2= 3.5D+00
   Bfn.  Coefficient  Atom+Function         Bfn.  Coefficient  Atom+Function  
  ----- ------------  ---------------      ----- ------------  ---------------
    21      0.309079   3 C  px               30     -0.309079   4 C  px        
    25      0.249987   3 C  px               34     -0.249987   4 C  px        
    39      0.168561   5 C  px               48     -0.168561   6 C  px        
    43      0.159049   5 C  px               52     -0.159049   6 C  px        
     3      0.153460   1 C  px               12     -0.153460   2 C  px        
 
 Vector   42  Occ=0.000000D+00  E= 9.452939D-03  Symmetry=a2
              MO Center=  3.0D-17,  1.4D-15, -7.8D-01, r^2= 5.8D+00
   Bfn.  Coefficient  Atom+Function         Bfn.  Coefficient  Atom+Function  
  ----- ------------  ---------------      ----- ------------  ---------------
    97     -0.277423  11 O  px              106      0.277423  12 O  px        
    79      0.262688   9 C  px               88     -0.262688  10 C  px        
    93     -0.248491  11 O  px              102      0.248491  12 O  px        
    43      0.206184   5 C  px               52     -0.206184   6 C  px        
    57      0.205134   7 C  px               66     -0.205134   8 C  px        
 
 Vector   43  Occ=0.000000D+00  E= 9.612538D-02  Symmetry=b1
              MO Center= -6.1D-16, -5.6D-16,  1.0D+00, r^2= 5.1D+00
   Bfn.  Coefficient  Atom+Function         Bfn.  Coefficient  Atom+Function  
  ----- ------------  ---------------      ----- ------------  ---------------
    25      0.511803   3 C  px               34      0.511803   4 C  px        
    21      0.287743   3 C  px               30      0.287743   4 C  px        
     7     -0.275820   1 C  px               16     -0.275820   2 C  px        
    61     -0.198263   7 C  px               70     -0.198263   8 C  px        
    43     -0.172626   5 C  px               52     -0.172626   6 C  px        
 
 Vector   44  Occ=0.000000D+00  E= 1.185881D-01  Symmetry=a2
              MO Center=  1.1D-15,  6.7D-16,  7.1D-02, r^2= 6.5D+00
   Bfn.  Coefficient  Atom+Function         Bfn.  Coefficient  Atom+Function  
  ----- ------------  ---------------      ----- ------------  ---------------
    79      0.445321   9 C  px               88     -0.445321  10 C  px        
     7      0.404435   1 C  px               16     -0.404435   2 C  px        
    43     -0.405779   5 C  px               52      0.405779   6 C  px        
    75      0.231335   9 C  px               84     -0.231335  10 C  px        
    39     -0.228098   5 C  px               48      0.228098   6 C  px        
 
 Vector   45  Occ=0.000000D+00  E= 2.121437D-01  Symmetry=b1
              MO Center=  1.5D-15, -5.6D-16, -5.4D-01, r^2= 5.2D+00
   Bfn.  Coefficient  Atom+Function         Bfn.  Coefficient  Atom+Function  
  ----- ------------  ---------------      ----- ------------  ---------------
    61      0.558736   7 C  px               70      0.558736   8 C  px        
    97     -0.329044  11 O  px              106     -0.329044  12 O  px        
    57      0.319092   7 C  px               66      0.319092   8 C  px        
    43     -0.312287   5 C  px               52     -0.312287   6 C  px        
    25      0.300765   3 C  px               34      0.300765   4 C  px        
 
 Vector   46  Occ=0.000000D+00  E= 2.310889D-01  Symmetry=a1
              MO Center= -6.0D-17,  5.4D-16,  2.6D+00, r^2= 9.1D+00
   Bfn.  Coefficient  Atom+Function         Bfn.  Coefficient  Atom+Function  
  ----- ------------  ---------------      ----- ------------  ---------------
   110      1.197084  13 H  s               112      1.197084  14 H  s         
     6     -0.990497   1 C  s                15     -0.990497   2 C  s         
   114      0.663313  15 H  s               116      0.663313  16 H  s         
    78     -0.440066   9 C  s                87     -0.440066  10 C  s         
   118      0.425090  17 H  s               120      0.425090  18 H  s         
 
 Vector   47  Occ=0.000000D+00  E= 2.461410D-01  Symmetry=a1
              MO Center=  4.2D-18, -2.8D-17, -2.8D+00, r^2= 6.9D+00
   Bfn.  Coefficient  Atom+Function         Bfn.  Coefficient  Atom+Function  
  ----- ------------  ---------------      ----- ------------  ---------------
   118      1.439317  17 H  s               120      1.439317  18 H  s         
    78     -1.036850   9 C  s                87     -1.036850  10 C  s         
    81      0.537310   9 C  pz               90      0.537310  10 C  pz        
    80     -0.468750   9 C  py               89      0.468750  10 C  py        
    24      0.325903   3 C  s                33      0.325903   4 C  s         
 
 Vector   48  Occ=0.000000D+00  E= 2.655666D-01  Symmetry=a2
              MO Center= -5.4D-17,  0.0D+00,  2.3D-01, r^2= 7.5D+00
   Bfn.  Coefficient  Atom+Function         Bfn.  Coefficient  Atom+Function  
  ----- ------------  ---------------      ----- ------------  ---------------
     7      0.572854   1 C  px               16     -0.572854   2 C  px        
    79     -0.529367   9 C  px               88      0.529367  10 C  px        
    25     -0.389673   3 C  px               34      0.389673   4 C  px        
    61      0.342362   7 C  px               70     -0.342362   8 C  px        
     3      0.232031   1 C  px               12     -0.232031   2 C  px        
 
 Vector   49  Occ=0.000000D+00  E= 2.843948D-01  Symmetry=b2
              MO Center=  5.6D-18,  6.7D-16,  2.0D+00, r^2= 1.1D+01
   Bfn.  Coefficient  Atom+Function         Bfn.  Coefficient  Atom+Function  
  ----- ------------  ---------------      ----- ------------  ---------------
   114     -1.152653  15 H  s               116      1.152653  16 H  s         
     6      1.090943   1 C  s                15     -1.090943   2 C  s         
   110     -1.078184  13 H  s               112      1.078184  14 H  s         
    24      0.745911   3 C  s                33     -0.745911   4 C  s         
    26      0.653667   3 C  py               35      0.653667   4 C  py        
 
 Vector   50  Occ=0.000000D+00  E= 3.040181D-01  Symmetry=b2
              MO Center= -6.4D-18,  1.6D-16, -2.0D+00, r^2= 1.3D+01
   Bfn.  Coefficient  Atom+Function         Bfn.  Coefficient  Atom+Function  
  ----- ------------  ---------------      ----- ------------  ---------------
   118      1.800508  17 H  s               120     -1.800508  18 H  s         
    81      1.478342   9 C  pz               90     -1.478342  10 C  pz        
    24      1.080178   3 C  s                33     -1.080178   4 C  s         
    45     -1.071838   5 C  pz               54      1.071838   6 C  pz        
    62      0.994109   7 C  py               71      0.994109   8 C  py        
 
 Vector   51  Occ=0.000000D+00  E= 3.126382D-01  Symmetry=a1
              MO Center= -1.1D-16, -2.8D-15,  1.9D+00, r^2= 9.6D+00
   Bfn.  Coefficient  Atom+Function         Bfn.  Coefficient  Atom+Function  
  ----- ------------  ---------------      ----- ------------  ---------------
   114      1.348426  15 H  s               116      1.348426  16 H  s         
    24     -1.209903   3 C  s                33     -1.209903   4 C  s         
   110     -0.946741  13 H  s               112     -0.946741  14 H  s         
    26     -0.744843   3 C  py               35      0.744843   4 C  py        
     6      0.733329   1 C  s                15      0.733329   2 C  s         
 
 Vector   52  Occ=0.000000D+00  E= 3.202264D-01  Symmetry=b2
              MO Center= -4.1D-18, -1.1D-16,  1.7D+00, r^2= 1.2D+01
   Bfn.  Coefficient  Atom+Function         Bfn.  Coefficient  Atom+Function  
  ----- ------------  ---------------      ----- ------------  ---------------
    26      1.507407   3 C  py               35      1.507407   4 C  py        
   114     -1.506946  15 H  s               116      1.506946  16 H  s         
   110      1.346424  13 H  s               112     -1.346424  14 H  s         
     9     -1.247735   1 C  pz               18      1.247735   2 C  pz        
    45      1.012084   5 C  pz               54     -1.012084   6 C  pz        
 
 Vector   53  Occ=0.000000D+00  E= 3.649661D-01  Symmetry=a1
              MO Center=  5.0D-17,  8.9D-16, -1.2D+00, r^2= 5.6D+00
   Bfn.  Coefficient  Atom+Function         Bfn.  Coefficient  Atom+Function  
  ----- ------------  ---------------      ----- ------------  ---------------
    60      1.921957   7 C  s                69      1.921957   8 C  s         
    78     -1.239092   9 C  s                87     -1.239092  10 C  s         
    62     -0.927200   7 C  py               71      0.927200   8 C  py        
    81     -0.887275   9 C  pz               90     -0.887275  10 C  pz        
    42     -0.601426   5 C  s                51     -0.601426   6 C  s         
 
 Vector   54  Occ=0.000000D+00  E= 4.007709D-01  Symmetry=a2
              MO Center= -8.8D-16, -3.3D-16,  2.0D-01, r^2= 5.1D+00
   Bfn.  Coefficient  Atom+Function         Bfn.  Coefficient  Atom+Function  
  ----- ------------  ---------------      ----- ------------  ---------------
    43      0.800135   5 C  px               52     -0.800135   6 C  px        
    25     -0.579510   3 C  px               34      0.579510   4 C  px        
    61     -0.535932   7 C  px               70      0.535932   8 C  px        
     7      0.449873   1 C  px               16     -0.449873   2 C  px        
    79      0.418174   9 C  px               88     -0.418174  10 C  px        
 
 Vector   55  Occ=0.000000D+00  E= 4.048979D-01  Symmetry=b2
              MO Center=  1.5D-16,  1.1D-15, -2.3D-01, r^2= 8.3D+00
   Bfn.  Coefficient  Atom+Function         Bfn.  Coefficient  Atom+Function  
  ----- ------------  ---------------      ----- ------------  ---------------
    62      1.773774   7 C  py               71      1.773774   8 C  py        
    45     -1.243508   5 C  pz               54      1.243508   6 C  pz        
    96     -1.237473  11 O  s               105      1.237473  12 O  s         
    27     -0.923868   3 C  pz               36      0.923868   4 C  pz        
     9     -0.867745   1 C  pz               18      0.867745   2 C  pz        
 
 Vector   56  Occ=0.000000D+00  E= 4.303259D-01  Symmetry=b2
              MO Center=  2.1D-16,  1.7D-15,  1.3D+00, r^2= 7.1D+00
   Bfn.  Coefficient  Atom+Function         Bfn.  Coefficient  Atom+Function  
  ----- ------------  ---------------      ----- ------------  ---------------
     6      2.008986   1 C  s                15     -2.008986   2 C  s         
     8     -1.572787   1 C  py               17     -1.572787   2 C  py        
    24      1.236768   3 C  s                33     -1.236768   4 C  s         
    42     -1.059389   5 C  s                51      1.059389   6 C  s         
    44     -1.015255   5 C  py               53     -1.015255   6 C  py        
 
 Vector   57  Occ=0.000000D+00  E= 4.331175D-01  Symmetry=a1
              MO Center= -2.9D-17, -1.5D-15, -1.7D-01, r^2= 6.7D+00
   Bfn.  Coefficient  Atom+Function         Bfn.  Coefficient  Atom+Function  
  ----- ------------  ---------------      ----- ------------  ---------------
    60      1.147266   7 C  s                69      1.147266   8 C  s         
    96     -1.098438  11 O  s               105     -1.098438  12 O  s         
    62      1.031618   7 C  py               71     -1.031618   8 C  py        
   114     -0.876558  15 H  s               116     -0.876558  16 H  s         
    26      0.847178   3 C  py               35     -0.847178   4 C  py        
 
 Vector   58  Occ=0.000000D+00  E= 4.520627D-01  Symmetry=a1
              MO Center=  1.3D-17,  1.0D-15,  5.3D-01, r^2= 8.7D+00
   Bfn.  Coefficient  Atom+Function         Bfn.  Coefficient  Atom+Function  
  ----- ------------  ---------------      ----- ------------  ---------------
     6      1.596862   1 C  s                15      1.596862   2 C  s         
    27     -1.375681   3 C  pz               36     -1.375681   4 C  pz        
    78     -1.093516   9 C  s                87     -1.093516  10 C  s         
    60      1.003803   7 C  s                69      1.003803   8 C  s         
     9     -0.990393   1 C  pz               18     -0.990393   2 C  pz        
 
 Vector   59  Occ=0.000000D+00  E= 4.825024D-01  Symmetry=a1
              MO Center=  1.1D-16,  2.8D-15,  1.1D+00, r^2= 8.2D+00
   Bfn.  Coefficient  Atom+Function         Bfn.  Coefficient  Atom+Function  
  ----- ------------  ---------------      ----- ------------  ---------------
    24      2.689077   3 C  s                33      2.689077   4 C  s         
    62      1.622606   7 C  py               71     -1.622606   8 C  py        
    42     -1.597049   5 C  s                51     -1.597049   6 C  s         
    45     -1.548839   5 C  pz               54     -1.548839   6 C  pz        
    26     -1.479063   3 C  py               35      1.479063   4 C  py        
 
 Vector   60  Occ=0.000000D+00  E= 5.272167D-01  Symmetry=b2
              MO Center= -5.0D-17, -6.7D-16, -5.0D-01, r^2= 6.6D+00
   Bfn.  Coefficient  Atom+Function         Bfn.  Coefficient  Atom+Function  
  ----- ------------  ---------------      ----- ------------  ---------------
    78      2.192685   9 C  s                87     -2.192685  10 C  s         
    80     -2.063126   9 C  py               89     -2.063126  10 C  py        
    42     -1.762087   5 C  s                51      1.762087   6 C  s         
    24     -1.354353   3 C  s                33      1.354353   4 C  s         
     8      1.253986   1 C  py               17      1.253986   2 C  py        
 

 center of mass
 --------------
 x =   0.00000000 y =   0.00000000 z =  -0.04410749

 moments of inertia (a.u.)
 ------------------
        3010.742367901745           0.000000000000           0.000000000000
           0.000000000000        1649.566175281881           0.000000000000
           0.000000000000           0.000000000000        1361.176192619865
 
  Mulliken analysis of the total density
  --------------------------------------

    Atom       Charge   Shell Charges
 -----------   ------   -------------------------------------------------------
    1 C    6     6.19   2.00  0.70  2.01  0.49  0.99
    2 C    6     6.19   2.00  0.70  2.01  0.49  0.99
    3 C    6     6.17   2.00  0.70  2.02  0.46  0.99
    4 C    6     6.17   2.00  0.70  2.02  0.46  0.99
    5 C    6     6.10   2.00  0.70  2.04  0.43  0.94
    6 C    6     6.10   2.00  0.70  2.04  0.43  0.94
    7 C    6     5.57   2.00  0.73  1.95  0.33  0.55
    8 C    6     5.57   2.00  0.73  1.95  0.33  0.55
    9 C    6     6.18   2.00  0.70  2.01  0.51  0.96
   10 C    6     6.18   2.00  0.70  2.01  0.51  0.96
   11 O    8     8.53   2.00  0.92  2.83  1.07  1.72
   12 O    8     8.53   2.00  0.92  2.83  1.07  1.72
   13 H    1     0.78   0.53  0.24
   14 H    1     0.78   0.53  0.24
   15 H    1     0.73   0.53  0.20
   16 H    1     0.73   0.53  0.20
   17 H    1     0.75   0.53  0.22
   18 H    1     0.75   0.53  0.22
 
       Multipole analysis of the density wrt the origin
       ------------------------------------------------
 
     L   x y z        total         open         nuclear
     -   - - -        -----         ----         -------
     0   0 0 0     -0.000000      0.000000     82.000000
 
     1   1 0 0      0.000000      0.000000      0.000000
     1   0 1 0     -0.000000      0.000000      0.000000
     1   0 0 1      0.606431      0.000000      0.000000
 
     2   2 0 0    -52.710288      0.000000      0.000000
     2   1 1 0      0.000000      0.000000      0.000000
     2   1 0 1     -0.000000      0.000000      0.000000
     2   0 2 0    -64.025249      0.000000    713.501455
     2   0 1 1     -0.000000      0.000000      0.000000
     2   0 0 2    -40.125476      0.000000    914.766617
 
                   NWChem Extensible Many-Electron Theory Module
                   ---------------------------------------------
 
              ======================================================
                   This portion of the program was automatically
                  generated by a Tensor Contraction Engine (TCE).
                  The development of this portion of the program
                 and TCE was supported by US Department of Energy,
                Office of Science, Office of Basic Energy Science.
                      TCE is a product of Battelle and PNNL.
              Please cite: S.Hirata, J.Phys.Chem.A 107, 9887 (2003).
              ======================================================
 
            General Information
            -------------------
      Number of processors :    16
         Wavefunction type : Restricted Hartree-Fock
          No. of electrons :    82
           Alpha electrons :    41
            Beta electrons :    41
           No. of orbitals :   240
            Alpha orbitals :   120
             Beta orbitals :   120
        Alpha frozen cores :    12
         Beta frozen cores :    12
     Alpha frozen virtuals :     0
      Beta frozen virtuals :     0
         Spin multiplicity : singlet 
    Number of AO functions :   120
       Number of AO shells :    72
        Use of symmetry is : on 
      Symmetry adaption is : on 
         Schwarz screening : 0.10D-09
 
          Correlation Information
          -----------------------
          Calculation type : Coupled-cluster singles & doubles                           
   Perturbative correction : none                                                        
            Max iterations :      100
        Residual threshold : 0.10D-04
     T(0) DIIS level shift : 0.00D+00
     L(0) DIIS level shift : 0.00D+00
     T(1) DIIS level shift : 0.00D+00
     L(1) DIIS level shift : 0.00D+00
     T(R) DIIS level shift : 0.00D+00
     T(I) DIIS level shift : 0.00D+00
   CC-T/L Amplitude update :  5-th order DIIS
     No. of excited states :     1
               Target root :     1
           Target symmetry : none
      Symmetry restriction : off
   Dipole & oscillator str : off
                I/O scheme : Global Array Library
        L-threshold :  0.10D-04
        EOM-threshold :  0.10D-04
 no EOMCCSD initial starts read in
 TCE RESTART OPTIONS
 READ_INT:   F
 WRITE_INT:  F
 READ_TA:    F
 WRITE_TA:   F
 READ_XA:    F
 WRITE_XA:   F
 READ_IN3:   F
 WRITE_IN3:  F
 SLICE:      F
 D4D5:       F
 
            Memory Information
            ------------------
          Available GA space size is    4404004800 doubles
          Available MA space size is     196596628 doubles
 
 Maximum block size supplied by input
 Maximum block size        35 doubles

 tile_dim =     32

 Block   Spin    Irrep     Size     Offset   Alpha
 -------------------------------------------------
   1    alpha     a1    13 doubles       0       1
   2    alpha     a2     2 doubles      13       2
   3    alpha     b1     4 doubles      15       3
   4    alpha     b2    10 doubles      19       4
   5    beta      a1    13 doubles      29       1
   6    beta      a2     2 doubles      42       2
   7    beta      b1     4 doubles      44       3
   8    beta      b2    10 doubles      48       4
   9    alpha     a1    29 doubles      58       9
  10    alpha     a2    10 doubles      87      10
  11    alpha     b1     8 doubles      97      11
  12    alpha     b2    32 doubles     105      12
  13    beta      a1    29 doubles     137       9
  14    beta      a2    10 doubles     166      10
  15    beta      b1     8 doubles     176      11
  16    beta      b2    32 doubles     184      12

 Global array virtual files algorithm will be used

 Parallel file system coherency ......... OK
 
 Fock matrix recomputed
 1-e file size   =             3816
 1-e file name   = ./14nq_ipeomccsd_631
 Cpu & wall time / sec            0.3            0.3
 4-electron integrals stored in orbital form
 
 v2    file size   =          9335018
 4-index algorithm nr.  13 is used
 imaxsize =       40
 imaxsize ichop =        0
 Cpu & wall time / sec            7.6            8.1
 T1-number-of-tasks                     4
 
 t1 file size   =              749
 t1 file name   = ./14nq_ipeomccsd_631
 t1 file handle =       -998
 T2-number-of-boxes                    92
 
 t2 file size   =          2247182
 t2 file name   = ./14nq_ipeomccsd_631
 t2 file handle =       -996

 CCSD iterations
 -----------------------------------------------------------------
 Iter          Residuum       Correlation     Cpu    Wall    V2*C2
 -----------------------------------------------------------------
    1   0.2572552706853  -1.1029137495191     0.7     0.8     0.1
    2   0.0898652649078  -1.1093437327686     0.7     0.8     0.1
    3   0.0398584433490  -1.1397666392919     0.7     0.8     0.1
    4   0.0204632553276  -1.1446170739096     0.7     0.8     0.1
    5   0.0111503367795  -1.1489519479459     0.7     0.8     0.1
 MICROCYCLE DIIS UPDATE:                     5                     5
    6   0.0037445394408  -1.1518093259463     0.7     0.8     0.1
    7   0.0019382624730  -1.1521929707479     0.7     0.8     0.1
    8   0.0011928040944  -1.1521767834782     0.7     0.8     0.1
    9   0.0007545424730  -1.1522204696826     0.7     0.8     0.1
   10   0.0004974127699  -1.1522501293001     0.7     0.8     0.1
 MICROCYCLE DIIS UPDATE:                    10                     5
   11   0.0001337762903  -1.1522816487501     0.7     0.8     0.1
   12   0.0000722612296  -1.1523002830003     0.7     0.8     0.1
   13   0.0000452879806  -1.1523048303172     0.7     0.8     0.1
   14   0.0000304454169  -1.1523079270657     0.7     0.8     0.1
   15   0.0000206396885  -1.1523087715075     0.7     0.8     0.1
 MICROCYCLE DIIS UPDATE:                    15                     5
   16   0.0000065760712  -1.1523108780092     0.7     0.8     0.1
 -----------------------------------------------------------------
 Iterations converged
 CCSD correlation energy / hartree =        -1.152310878009231
 CCSD total energy / hartree       =      -532.840576515316570

 Singles contributions

 Doubles contributions
 
 IPCCSD calculation
 
 Ground-state symmetry is a1  
 
 =========================================
 Excited-state calculation ( a1  symmetry)
 =========================================
 Dim. of EOMCC iter. space      500
 
 x1 file size   =               13
 
 x2 file size   =            33718

 EOMCCSD SOLVER TYPE  1

 No. of initial right vectors    1

 EOM-CCSD right-hand side iterations
 --------------------------------------------------------------
      Residuum       Omega / hartree  Omega / eV    Cpu    Wall
 --------------------------------------------------------------

 Iteration   1 using    1 trial vectors
   0.4508239409168   0.5031908838627   13.69253     0.4     0.4

 Iteration   2 using    2 trial vectors
   0.0791956876639   0.3586664867353    9.75982     0.3     0.4

 Iteration   3 using    3 trial vectors
   0.0328823349753   0.3528784853546    9.60232     0.3     0.4

 Iteration   4 using    4 trial vectors
   0.0148671120033   0.3512533072842    9.55809     0.3     0.4

 Iteration   5 using    5 trial vectors
   0.0070629489195   0.3508678836022    9.54760     0.3     0.4

 Iteration   6 using    6 trial vectors
   0.0037882198109   0.3508689754603    9.54763     0.4     0.4

 Iteration   7 using    7 trial vectors
   0.0023595163266   0.3508658621115    9.54755     0.4     0.4

 Iteration   8 using    8 trial vectors
   0.0011839505394   0.3508684772458    9.54762     0.4     0.4

 Iteration   9 using    9 trial vectors
   0.0005850726046   0.3508616515772    9.54744     0.4     0.4

 Iteration  10 using   10 trial vectors
   0.0002735494890   0.3508598032938    9.54739     0.4     0.4

 Iteration  11 using   11 trial vectors
   0.0001068089249   0.3508603137111    9.54740     0.4     0.4

 Iteration  12 using   12 trial vectors
   0.0000473699932   0.3508594160548    9.54737     0.4     0.4

 Iteration  13 using   13 trial vectors
   0.0000198321387   0.3508593130743    9.54737     0.4     0.4

 Iteration  14 using   14 trial vectors
   0.0000081523336   0.3508594971511    9.54738     0.4     0.4
 --------------------------------------------------------------
 Iterations converged
 largest EOMCCSD amplitudes: R1 and R2

 Singles contributions
    37a1  (alpha)       -0.9397171253

 Doubles contributions
 
 =========================================
 Excited-state calculation ( a2  symmetry)
 =========================================
 Dim. of EOMCC iter. space      500
 
 x1 file size   =                2
 
 x2 file size   =            21746

 EOMCCSD SOLVER TYPE  1

 No. of initial right vectors    1

 EOM-CCSD right-hand side iterations
 --------------------------------------------------------------
      Residuum       Omega / hartree  Omega / eV    Cpu    Wall
 --------------------------------------------------------------

 Iteration   1 using    1 trial vectors
   0.2842631016174   0.4202985867895   11.43691     0.3     0.4

 Iteration   2 using    2 trial vectors
   0.0514345714389   0.3471746764325    9.44711     0.3     0.4

 Iteration   3 using    3 trial vectors
   0.0190429421861   0.3446451313473    9.37828     0.3     0.4

 Iteration   4 using    4 trial vectors
   0.0062254665354   0.3444572170314    9.37316     0.3     0.4

 Iteration   5 using    5 trial vectors
   0.0033252488416   0.3444147419402    9.37201     0.3     0.4

 Iteration   6 using    6 trial vectors
   0.0020231809523   0.3443919572877    9.37139     0.3     0.4

 Iteration   7 using    7 trial vectors
   0.0007998039689   0.3443941219230    9.37144     0.3     0.4

 Iteration   8 using    8 trial vectors
   0.0002332723364   0.3444009589703    9.37163     0.3     0.4

 Iteration   9 using    9 trial vectors
   0.0000918356770   0.3444009168764    9.37163     0.3     0.4

 Iteration  10 using   10 trial vectors
   0.0000370359311   0.3444006418595    9.37162     0.4     0.4

 Iteration  11 using   11 trial vectors
   0.0000127394548   0.3444007898544    9.37163     0.4     0.4

 Iteration  12 using   12 trial vectors
   0.0000042066061   0.3444007681421    9.37163     0.3     0.4
 --------------------------------------------------------------
 Iterations converged
 largest EOMCCSD amplitudes: R1 and R2

 Singles contributions
    41a2  (alpha)       -0.9652416774

 Doubles contributions
 
 =========================================
 Excited-state calculation ( b1  symmetry)
 =========================================
 Dim. of EOMCC iter. space      500
 
 x1 file size   =                4
 
 x2 file size   =            21364

 EOMCCSD SOLVER TYPE  1

 No. of initial right vectors    2

 EOM-CCSD right-hand side iterations
 --------------------------------------------------------------
      Residuum       Omega / hartree  Omega / eV    Cpu    Wall
 --------------------------------------------------------------

 Iteration   1 using    2 trial vectors
   0.2881893042352   0.4244201888677   11.54907     0.7     0.8

 Iteration   2 using    3 trial vectors
   0.0527123654054   0.3492170380149    9.50268     0.3     0.4

 Iteration   3 using    4 trial vectors
   0.0217158406903   0.3462674441334    9.42242     0.3     0.4

 Iteration   4 using    5 trial vectors
   0.0106776689428   0.3459084237998    9.41265     0.3     0.4

 Iteration   5 using    6 trial vectors
   0.0068657212050   0.3457101247176    9.40726     0.3     0.4

 Iteration   6 using    7 trial vectors
   0.0032813531823   0.3456470071584    9.40554     0.3     0.4

 Iteration   7 using    8 trial vectors
   0.0012031642782   0.3456487914189    9.40559     0.3     0.4

 Iteration   8 using    9 trial vectors
   0.0006242803092   0.3456576107453    9.40583     0.3     0.4

 Iteration   9 using   10 trial vectors
   0.0003460681250   0.3456565680031    9.40580     0.3     0.4

 Iteration  10 using   11 trial vectors
   0.0001353479468   0.3456559181289    9.40578     0.4     0.4

 Iteration  11 using   12 trial vectors
   0.0000530786252   0.3456564921969    9.40580     0.3     0.4

 Iteration  12 using   13 trial vectors
   0.0000282451918   0.3456562616780    9.40579     0.3     0.4

 Iteration  13 using   14 trial vectors
   0.0000116287023   0.3456561197287    9.40579     0.4     0.4

 Iteration  14 using   15 trial vectors
   0.0000038920591   0.3456561441207    9.40579     0.3     0.4
 --------------------------------------------------------------
 Iterations converged
 largest EOMCCSD amplitudes: R1 and R2

 Singles contributions
    40b1  (alpha)       -0.9602374502

 Doubles contributions
 
 =========================================
 Excited-state calculation ( b2  symmetry)
 =========================================
 Dim. of EOMCC iter. space      500
 
 x1 file size   =               10
 
 x2 file size   =            34246

 EOMCCSD SOLVER TYPE  1

 No. of initial right vectors    1

 EOM-CCSD right-hand side iterations
 --------------------------------------------------------------
      Residuum       Omega / hartree  Omega / eV    Cpu    Wall
 --------------------------------------------------------------

 Iteration   1 using    1 trial vectors
   0.4295777136977   0.4748248881035   12.92065     0.4     0.4

 Iteration   2 using    2 trial vectors
   0.0761107613925   0.3461715266061    9.41981     0.4     0.4

 Iteration   3 using    3 trial vectors
   0.0388703446400   0.3407466399200    9.27219     0.4     0.4

 Iteration   4 using    4 trial vectors
   0.0223203611448   0.3381159434357    9.20061     0.4     0.4

 Iteration   5 using    5 trial vectors
   0.0105679116524   0.3373883156826    9.18081     0.4     0.4

 Iteration   6 using    6 trial vectors
   0.0042358646304   0.3373680166481    9.18025     0.4     0.4

 Iteration   7 using    7 trial vectors
   0.0020829129798   0.3373700450215    9.18031     0.4     0.4

 Iteration   8 using    8 trial vectors
   0.0009259120980   0.3373777794338    9.18052     0.4     0.4

 Iteration   9 using    9 trial vectors
   0.0003956442510   0.3373708605988    9.18033     0.4     0.4

 Iteration  10 using   10 trial vectors
   0.0001782076537   0.3373693616002    9.18029     0.4     0.4

 Iteration  11 using   11 trial vectors
   0.0000635773688   0.3373699332201    9.18031     0.4     0.4

 Iteration  12 using   12 trial vectors
   0.0000235189798   0.3373694997372    9.18030     0.4     0.4

 Iteration  13 using   13 trial vectors
   0.0000097297938   0.3373693896359    9.18029     0.4     0.4
 --------------------------------------------------------------
 Iterations converged
 largest EOMCCSD amplitudes: R1 and R2

 Singles contributions
    34b2  (alpha)        0.1243572483
    38b2  (alpha)       -0.9360860999

 Doubles contributions

 Task  times  cpu:       43.5s     wall:       47.4s
 
 
                                NWChem Input Module
                                -------------------
 
 
 Summary of allocated global arrays
-----------------------------------
  No active global arrays



                         GA Statistics for process    0
                         ------------------------------

       create   destroy   get      put      acc     scatter   gather  read&inc
calls: 1.10e+04 1.10e+04 1.03e+05 1.14e+04 3.18e+04    0        0     2.76e+05 
number of processes/call 1.60e+00 1.18e+00 1.21e+00 0.00e+00 0.00e+00
bytes total:             1.61e+10 1.19e+08 2.27e+09 0.00e+00 0.00e+00 2.21e+06
bytes remote:            1.45e+10 1.14e+08 2.17e+09 0.00e+00 0.00e+00 0.00e+00
Max memory consumed for GA by this process: 50788608 bytes
 
MA_summarize_allocated_blocks: starting scan ...
MA_summarize_allocated_blocks: scan completed: 0 heap blocks, 0 stack blocks
MA usage statistics:

	allocation statistics:
					      heap	     stack
					      ----	     -----
	current number of blocks	         0	         0
	maximum number of blocks	        17	        35
	current total bytes		         0	         0
	maximum total bytes		     87792	 106111464
	maximum total K-bytes		        88	    106112
	maximum total M-bytes		         1	       107
 
 
                                     CITATION
                                     --------
                Please cite the following reference when publishing
                           results obtained with NWChem:
 
                 M. Valiev, E.J. Bylaska, N. Govind, K. Kowalski,
              T.P. Straatsma, H.J.J. van Dam, D. Wang, J. Nieplocha,
                        E. Apra, T.L. Windus, W.A. de Jong
                 "NWChem: a comprehensive and scalable open-source
                  solution for large scale molecular simulations"
                      Comput. Phys. Commun. 181, 1477 (2010)
                           doi:10.1016/j.cpc.2010.04.018
 
                                      AUTHORS
                                      -------
          E. Apra, E. J. Bylaska, W. A. de Jong, N. Govind, K. Kowalski,
       T. P. Straatsma, M. Valiev, H. J. J. van Dam, D. Wang, T. L. Windus,
        J. Hammond, J. Autschbach, K. Bhaskaran-Nair, J. Brabec, K. Lopata,
        S. Krishnamoorthy, W. Ma, M. Klemm, O. Villa, Y. Chen, V. Anisimov,
    F. Aquino, S. Hirata, M. T. Hackler, T. Risthaus, M. Malagoli, A. Marenich,
   A. Otero-de-la-Roza, J. Mullin, P. Nichols, R. Peverati, J. Pittner, Y. Zhao,
          P.-D. Fan, A. Fonari, M. Williamson, R. J. Harrison, M. Dupuis,
     D. Silverstein, D. M. A. Smith, J. Nieplocha, V. Tipparaju, M. Krishnan,
       B. E. Van Kuiken, A. Vazquez-Mayagoitia, L. Jensen, M. Swart, Q. Wu,
   T. Van Voorhis, A. A. Auer, M. Nooijen, L. D. Crosby, E. Brown, G. Cisneros,
     G. I. Fann, H. Fruchtl, J. Garza, K. Hirao, R. A. Kendall, J. A. Nichols,
       K. Tsemekhman, K. Wolinski, J. Anchell, D. E. Bernholdt, P. Borowski,
       T. Clark, D. Clerc, H. Dachsel, M. J. O. Deegan, K. Dyall, D. Elwood,
      E. Glendening, M. Gutowski, A. C. Hess, J. Jaffe, B. G. Johnson, J. Ju,
        R. Kobayashi, R. Kutteh, Z. Lin, R. Littlefield, X. Long, B. Meng,
      T. Nakajima, S. Niu, L. Pollack, M. Rosing, K. Glaesemann, G. Sandrone,
      M. Stave, H. Taylor, G. Thomas, J. H. van Lenthe, A. T. Wong, Z. Zhang.

 Total times  cpu:       43.5s     wall:       47.9s
